
                    DL_POLY Version 2.20

                              Running on    1 nodes


 ************************************************************************************************************************
 ************************************************************************************************************************
 ************************************************************************************************************************
 ***************     DL_POLY CONTROL file                                                                 ***************
 ************************************************************************************************************************
 ************************************************************************************************************************
 ************************************************************************************************************************


 SIMULATION CONTROL PARAMETERS


 simulation temperature           3.0000E+02

 simulation timestep              1.0000E-03

 selected number of timesteps          100

 real space cut off               7.0000E+00

 real space cut off (vdw)         7.0000E+00

 border width of Verlet shell     5.0000E-01


 electrostatic potential terms off

 tolerance for SHAKE              1.0000E-08

 trajectory file option on  
 trajectory file start                   0
 trajectory file interval                1
 trajectory file info key                2

 data printing interval                  1

 data stacking interval               1000

 statistics file interval             1000

 user allocated job time (s)      1.0000E+08

 job closure time        (s)      1.0000E+03


SYSTEM SPECIFICATION

 energy units=kjoule/mol 


 number of molecular types               1

 molecular species type                  1


 name of species:             Unnamed001                              

 number of molecules                    41

 number of atoms/sites                   9


 atomic characteristics:

                      site     name          mass        charge    repeat    freeze

                         1     CT          12.01100    -0.18000         1         0
                         2     CT          12.01100     0.14500         1         0
                         3     HC           1.00800     0.06000         1         0
                         4     HC           1.00800     0.06000         1         0
                         5     HC           1.00800     0.06000         1         0
                         6     OH_a        15.99900    -0.68300         1         0
                         7     HC           1.00800     0.06000         1         0
                         8     HC           1.00800     0.06000         1         0
                         9     HO           1.00800     0.41800         1         0

 number of chemical bonds                8


 chemical bond details:

                            key     index     index                            parameters

                           harm         1         2     2.242624E+03   1.529000E+00   0.000000E+00   0.000000E+00
                           harm         1         3     2.845120E+03   1.090000E+00   0.000000E+00   0.000000E+00
                           harm         1         4     2.845120E+03   1.090000E+00   0.000000E+00   0.000000E+00
                           harm         1         5     2.845120E+03   1.090000E+00   0.000000E+00   0.000000E+00
                           harm         2         6     2.677760E+03   1.410000E+00   0.000000E+00   0.000000E+00
                           harm         2         7     2.845120E+03   1.090000E+00   0.000000E+00   0.000000E+00
                           harm         2         8     2.845120E+03   1.090000E+00   0.000000E+00   0.000000E+00
                           harm         6         9     4.627504E+03   9.450000E-01   0.000000E+00   0.000000E+00

 number of bond angles                  13


 bond angle details:

                            key     index     index     index     f-const       angle

                           harm         2         1         3  3.1380E+02  110.700000    0.000000    0.000000    0.000000    0.000000
                           harm         2         1         4  3.1380E+02  110.700000    0.000000    0.000000    0.000000    0.000000
                           harm         2         1         5  3.1380E+02  110.700000    0.000000    0.000000    0.000000    0.000000
                           harm         3         1         4  2.7614E+02  107.800000    0.000000    0.000000    0.000000    0.000000
                           harm         3         1         5  2.7614E+02  107.800000    0.000000    0.000000    0.000000    0.000000
                           harm         4         1         5  2.7614E+02  107.800000    0.000000    0.000000    0.000000    0.000000
                           harm         1         2         6  4.1840E+02  109.500000    0.000000    0.000000    0.000000    0.000000
                           harm         1         2         7  3.1380E+02  110.700000    0.000000    0.000000    0.000000    0.000000
                           harm         1         2         8  3.1380E+02  110.700000    0.000000    0.000000    0.000000    0.000000
                           harm         6         2         7  2.9288E+02  109.500000    0.000000    0.000000    0.000000    0.000000
                           harm         6         2         8  2.9288E+02  109.500000    0.000000    0.000000    0.000000    0.000000
                           harm         7         2         8  2.7614E+02  107.800000    0.000000    0.000000    0.000000    0.000000
                           harm         2         6         9  4.6024E+02  108.500000    0.000000    0.000000    0.000000    0.000000

 number of dihedral angles              12


 dihedral angle details:

                            key     index     index     index     index     f-const       angle        trig    1-4 elec     1-4 vdw

                           cos3         3         1         2         6  0.0000E+00    0.000000    1.958100    0.500000    0.500000
                           cos3         3         1         2         7  0.0000E+00    0.000000    1.255200    0.500000    0.500000
                           cos3         3         1         2         8  0.0000E+00    0.000000    1.255200    0.500000    0.500000
                           cos3         4         1         2         6  0.0000E+00    0.000000    1.958100    0.500000    0.500000
                           cos3         4         1         2         7  0.0000E+00    0.000000    1.255200    0.500000    0.500000
                           cos3         4         1         2         8  0.0000E+00    0.000000    1.255200    0.500000    0.500000
                           cos3         5         1         2         6  0.0000E+00    0.000000    1.958100    0.500000    0.500000
                           cos3         5         1         2         7  0.0000E+00    0.000000    1.255200    0.500000    0.500000
                           cos3         5         1         2         8  0.0000E+00    0.000000    1.255200    0.500000    0.500000
                           cos3         1         2         6         9 -1.4895E+00   -0.728000    2.058500    0.500000    0.500000
                           cos3         7         2         6         9  0.0000E+00    0.000000    1.474400    0.500000    0.500000
                           cos3         8         2         6         9  0.0000E+00    0.000000    1.474400    0.500000    0.500000


 number of specified pair potentials        10


                atom 1  atom 2      key                              parameters


                CT      CT        lj       2.76144E-01  3.50000E+00
                HC      CT        lj       1.86176E-01  2.95804E+00
                HC      HC        lj       1.25520E-01  2.50000E+00
                OH_a    CT        lj       4.43188E-01  3.30454E+00
                OH_a    HC        lj       2.98797E-01  2.79285E+00
                OH_a    OH_a      lj       7.11280E-01  3.12000E+00
                HO      CT        lj       0.00000E+00  0.00000E+00
                HO      HC        lj       0.00000E+00  0.00000E+00
                HO      OH_a      lj       0.00000E+00  0.00000E+00
                HO      HO        lj       0.00000E+00  0.00000E+00

 configuration file name: 

          Unnamed002                                                                      


 selected image convention               3


 simulation cell vectors


                        16.000000    0.000000    0.000000
                        -2.778371   15.756924    0.000000
                        -2.778371   -0.489902   15.749307


 system volume            3970.56997248    


 total degrees of freedom                      1104.
 rotational degrees of freedom                    0.
 shell pseudo degrees of freedom                  0.


 sample of starting configuration

      i       x(i)        y(i)        z(i)       vx(i)       vy(i)       vz(i)


      1  1.5005E+00  1.4860E+00  5.1917E+00  8.9779E+00 -2.4256E+00 -4.6596E+00
     20 -4.6318E+00 -2.9771E+00  2.9811E+00 -4.1712E+00 -3.7191E-01 -8.6434E-01
     39 -6.0242E+00  6.8130E+00 -3.0898E+00  1.7740E+01  1.1062E+01 -5.1322E+00
     58 -1.3673E+00  7.8810E-01  2.8433E+00  5.1152E+00 -6.8110E+00 -3.3978E+00
     77  3.3612E+00 -3.1240E+00 -6.1553E+00  2.4190E+00  1.6680E+01  9.3957E+00
     96 -1.7599E+00 -1.0910E+00 -3.2625E+00  1.7684E+00 -1.8913E-01 -2.9878E+00
    115  1.3377E+00 -4.0756E+00 -2.1017E+00  8.1705E+00 -1.7108E+01  2.0002E+01
    134 -7.3932E-01 -5.5231E+00  6.1713E+00  1.9264E+01  6.0733E+00  2.5577E+01
    153  6.0875E+00  1.0064E+00  6.2329E+00  1.1205E+01 -1.0676E+01  9.1966E+00
    172 -2.4439E+00 -5.8204E+00 -1.8659E-01  5.2165E+00 -7.3526E+00 -9.5750E-01
    191 -2.9866E+00 -2.8376E-01 -5.9915E-01 -6.1861E+00  3.1339E+00 -2.8663E+00
    210  3.6972E+00 -9.0289E-01 -1.5724E+00  1.9092E+00 -2.2018E+01  5.3498E+00
    229  4.7945E+00  7.5322E+00 -1.7769E+00 -1.9624E+01  2.5660E+01 -2.3954E+01
    248  5.3667E+00 -1.6128E+00 -4.1041E+00  6.1580E+00 -1.6798E+01  2.8590E+01
    267 -8.3303E+00  1.0403E+00  5.4238E+00  3.0350E+00  3.4573E+00  5.6026E+00
    286 -9.3437E+00  6.5383E+00  1.6936E+00 -1.1324E+01 -2.9297E+00 -1.1940E+01
    305 -5.4223E+00 -1.5595E+00 -4.3020E+00 -1.1425E+01  1.6682E+01 -6.1965E-01
    324  3.8298E+00  1.6410E+00 -8.9434E-02  1.9027E+01  1.6812E+01  3.6748E+00
    343 -5.6204E+00  6.0427E+00  2.8807E+00  2.7037E+00  5.1864E+00 -6.4853E-01
    362 -1.6743E+00 -4.4773E+00 -5.3749E+00 -1.6221E+00 -4.5913E+00  1.5157E+00


long range correction for: vdw energy    -0.997396E+02
                         : vdw pressure  -0.820948E+00

 time elapsed since job start =           0.012 seconds

 ------------------------------------------------------------------------------------------------------------------------

     step     eng_tot    temp_tot     eng_cfg     eng_vdw     eng_cou     eng_bnd     eng_ang     eng_dih     eng_tet
 time(ps)      eng_pv    temp_rot     vir_cfg     vir_vdw     vir_cou     vir_bnd     vir_ang     vir_con     vir_tet
 cpu  (s)      volume    temp_shl     eng_shl     vir_shl       alpha        beta       gamma     vir_pmf       press

 ------------------------------------------------------------------------------------------------------------------------
        1  2.0545E+03  3.1287E+02  6.1857E+02 -4.7883E+02  0.0000E+00  4.0279E+02  6.0346E+02  9.1146E+01  0.0000E+00
      0.0  3.6134E+03  0.0000E+00 -1.8047E+03 -3.8649E+03  0.0000E+00  2.0602E+03  0.0000E+00  0.0000E+00  0.0000E+00
      0.0  3.9706E+03  0.0000E+00  0.0000E+00  0.0000E+00  9.0000E+01  1.0000E+02  1.0000E+02  0.0000E+00  6.4341E+00

  rolling  2.0545E+03  3.1287E+02  6.1857E+02 -4.7883E+02  0.0000E+00  4.0279E+02  6.0346E+02  9.1146E+01  0.0000E+00
 averages  3.6134E+03  0.0000E+00 -1.8047E+03 -3.8649E+03  0.0000E+00  2.0602E+03  0.0000E+00  0.0000E+00  0.0000E+00
           3.9706E+03  0.0000E+00  0.0000E+00  0.0000E+00  9.0000E+01  1.0000E+02  1.0000E+02  0.0000E+00  6.4341E+00
 ------------------------------------------------------------------------------------------------------------------------
        2  2.0451E+03  3.4163E+02  4.7713E+02 -4.7862E+02  0.0000E+00  3.0432E+02  5.6134E+02  9.0091E+01  0.0000E+00
      0.0  4.0377E+03  0.0000E+00 -2.8419E+03 -3.8662E+03  0.0000E+00  1.0243E+03  0.0000E+00  0.0000E+00  0.0000E+00
      0.0  3.9706E+03  0.0000E+00  0.0000E+00  0.0000E+00  9.0000E+01  1.0000E+02  1.0000E+02  0.0000E+00  8.2243E+00

  rolling  2.0498E+03  3.2725E+02  5.4785E+02 -4.7872E+02  0.0000E+00  3.5356E+02  5.8240E+02  9.0619E+01  0.0000E+00
 averages  3.8255E+03  0.0000E+00 -2.3233E+03 -3.8656E+03  0.0000E+00  1.5422E+03  0.0000E+00  0.0000E+00  0.0000E+00
           3.9706E+03  0.0000E+00  0.0000E+00  0.0000E+00  9.0000E+01  1.0000E+02  1.0000E+02  0.0000E+00  7.3292E+00
 ------------------------------------------------------------------------------------------------------------------------
        3  2.0520E+03  3.3560E+02  5.1170E+02 -4.7682E+02  0.0000E+00  3.7309E+02  5.2627E+02  8.9163E+01  0.0000E+00
      0.0  4.1308E+03  0.0000E+00 -3.1559E+03 -3.8897E+03  0.0000E+00  7.3379E+02  0.0000E+00  0.0000E+00  0.0000E+00
      0.0  3.9706E+03  0.0000E+00  0.0000E+00  0.0000E+00  9.0000E+01  1.0000E+02  1.0000E+02  0.0000E+00  8.5802E+00

  rolling  2.0505E+03  3.3003E+02  5.3580E+02 -4.7809E+02  0.0000E+00  3.6007E+02  5.6369E+02  9.0133E+01  0.0000E+00
 averages  3.9273E+03  0.0000E+00 -2.6008E+03 -3.8736E+03  0.0000E+00  1.2728E+03  0.0000E+00  0.0000E+00  0.0000E+00
           3.9706E+03  0.0000E+00  0.0000E+00  0.0000E+00  9.0000E+01  1.0000E+02  1.0000E+02  0.0000E+00  7.7462E+00
 ------------------------------------------------------------------------------------------------------------------------
        4  2.0638E+03  3.1339E+02  6.2547E+02 -4.7337E+02  0.0000E+00  5.0362E+02  5.0670E+02  8.8509E+01  0.0000E+00
      0.0  3.8925E+03  0.0000E+00 -2.6095E+03 -3.9351E+03  0.0000E+00  1.3256E+03  0.0000E+00  0.0000E+00  0.0000E+00
      0.1  3.9706E+03  0.0000E+00  0.0000E+00  0.0000E+00  9.0000E+01  1.0000E+02  1.0000E+02  0.0000E+00  7.5479E+00

  rolling  2.0538E+03  3.2587E+02  5.5822E+02 -4.7691E+02  0.0000E+00  3.9596E+02  5.4944E+02  8.9727E+01  0.0000E+00
 averages  3.9186E+03  0.0000E+00 -2.6030E+03 -3.8890E+03  0.0000E+00  1.2860E+03  0.0000E+00  0.0000E+00  0.0000E+00
           3.9706E+03  0.0000E+00  0.0000E+00  0.0000E+00  9.0000E+01  1.0000E+02  1.0000E+02  0.0000E+00  7.6966E+00
 ------------------------------------------------------------------------------------------------------------------------
        5  2.0637E+03  3.0859E+02  6.4741E+02 -4.6996E+02  0.0000E+00  5.2264E+02  5.0649E+02  8.8235E+01  0.0000E+00
      0.0  3.5079E+03  0.0000E+00 -1.4998E+03 -3.9781E+03  0.0000E+00  2.4783E+03  0.0000E+00  0.0000E+00  0.0000E+00
      0.1  3.9706E+03  0.0000E+00  0.0000E+00  0.0000E+00  9.0000E+01  1.0000E+02  1.0000E+02  0.0000E+00  5.9606E+00

  rolling  2.0558E+03  3.2242E+02  5.7605E+02 -4.7552E+02  0.0000E+00  4.2129E+02  5.4085E+02  8.9429E+01  0.0000E+00
 averages  3.8364E+03  0.0000E+00 -2.3824E+03 -3.9068E+03  0.0000E+00  1.5244E+03  0.0000E+00  0.0000E+00  0.0000E+00
           3.9706E+03  0.0000E+00  0.0000E+00  0.0000E+00  9.0000E+01  1.0000E+02  1.0000E+02  0.0000E+00  7.3494E+00
 ------------------------------------------------------------------------------------------------------------------------
        6  2.0542E+03  3.2256E+02  5.7378E+02 -4.6865E+02  0.0000E+00  4.2980E+02  5.2427E+02  8.8348E+01  0.0000E+00
      0.0  3.0985E+03  0.0000E+00 -1.7202E+02 -3.9904E+03  0.0000E+00  3.8184E+03  0.0000E+00  0.0000E+00  0.0000E+00
      0.1  3.9706E+03  0.0000E+00  0.0000E+00  0.0000E+00  9.0000E+01  1.0000E+02  1.0000E+02  0.0000E+00  4.3103E+00

  rolling  2.0555E+03  3.2244E+02  5.7567E+02 -4.7438E+02  0.0000E+00  4.2271E+02  5.3809E+02  8.9249E+01  0.0000E+00
 averages  3.7135E+03  0.0000E+00 -2.0140E+03 -3.9207E+03  0.0000E+00  1.9068E+03  0.0000E+00  0.0000E+00  0.0000E+00
           3.9706E+03  0.0000E+00  0.0000E+00  0.0000E+00  9.0000E+01  1.0000E+02  1.0000E+02  0.0000E+00  6.8429E+00
 ------------------------------------------------------------------------------------------------------------------------
        7  2.0501E+03  3.2949E+02  5.3789E+02 -4.6993E+02  0.0000E+00  3.6421E+02  5.5487E+02  8.8742E+01  0.0000E+00
      0.0  2.7236E+03  0.0000E+00  1.0041E+03 -3.9659E+03  0.0000E+00  4.9700E+03  0.0000E+00  0.0000E+00  0.0000E+00
      0.1  3.9706E+03  0.0000E+00  0.0000E+00  0.0000E+00  9.0000E+01  1.0000E+02  1.0000E+02  0.0000E+00  2.7796E+00

  rolling  2.0548E+03  3.2345E+02  5.7028E+02 -4.7374E+02  0.0000E+00  4.1435E+02  5.4049E+02  8.9176E+01  0.0000E+00
 averages  3.5720E+03  0.0000E+00 -1.5828E+03 -3.9272E+03  0.0000E+00  2.3444E+03  0.0000E+00  0.0000E+00  0.0000E+00
           3.9706E+03  0.0000E+00  0.0000E+00  0.0000E+00  9.0000E+01  1.0000E+02  1.0000E+02  0.0000E+00  6.2624E+00
 ------------------------------------------------------------------------------------------------------------------------
        8  2.0553E+03  3.1731E+02  5.9902E+02 -4.7288E+02  0.0000E+00  3.9133E+02  5.9134E+02  8.9230E+01  0.0000E+00
      0.0  2.5329E+03  0.0000E+00  1.4799E+03 -3.9153E+03  0.0000E+00  5.3952E+03  0.0000E+00  0.0000E+00  0.0000E+00
      0.1  3.9706E+03  0.0000E+00  0.0000E+00  0.0000E+00  9.0000E+01  1.0000E+02  1.0000E+02  0.0000E+00  1.9712E+00

  rolling  2.0548E+03  3.2268E+02  5.7387E+02 -4.7363E+02  0.0000E+00  4.1148E+02  5.4684E+02  8.9183E+01  0.0000E+00
 averages  3.4422E+03  0.0000E+00 -1.2000E+03 -3.9257E+03  0.0000E+00  2.7257E+03  0.0000E+00  0.0000E+00  0.0000E+00
           3.9706E+03  0.0000E+00  0.0000E+00  0.0000E+00  9.0000E+01  1.0000E+02  1.0000E+02  0.0000E+00  5.7260E+00
 ------------------------------------------------------------------------------------------------------------------------
 ------------------------------------------------------------------------------------------------------------------------

     step     eng_tot    temp_tot     eng_cfg     eng_vdw     eng_cou     eng_bnd     eng_ang     eng_dih     eng_tet
 time(ps)      eng_pv    temp_rot     vir_cfg     vir_vdw     vir_cou     vir_bnd     vir_ang     vir_con     vir_tet
 cpu  (s)      volume    temp_shl     eng_shl     vir_shl       alpha        beta       gamma     vir_pmf       press

 ------------------------------------------------------------------------------------------------------------------------
        9  2.0601E+03  2.9972E+02  6.8446E+02 -4.7729E+02  0.0000E+00  4.4597E+02  6.2618E+02  8.9596E+01  0.0000E+00
      0.0  2.7299E+03  0.0000E+00  7.4169E+02 -3.8431E+03  0.0000E+00  4.5848E+03  0.0000E+00  0.0000E+00  0.0000E+00
      0.1  3.9706E+03  0.0000E+00  0.0000E+00  0.0000E+00  9.0000E+01  1.0000E+02  1.0000E+02  0.0000E+00  2.7647E+00

  rolling  2.0554E+03  3.2013E+02  5.8616E+02 -4.7404E+02  0.0000E+00  4.1531E+02  5.5566E+02  8.9229E+01  0.0000E+00
 averages  3.3630E+03  0.0000E+00 -9.8424E+02 -3.9165E+03  0.0000E+00  2.9323E+03  0.0000E+00  0.0000E+00  0.0000E+00
           3.9706E+03  0.0000E+00  0.0000E+00  0.0000E+00  9.0000E+01  1.0000E+02  1.0000E+02  0.0000E+00  5.3970E+00
 ------------------------------------------------------------------------------------------------------------------------
       10  2.0595E+03  2.9098E+02  7.2404E+02 -4.8299E+02  0.0000E+00  4.6524E+02  6.5215E+02  8.9641E+01  0.0000E+00
      0.0  3.3565E+03  0.0000E+00 -1.2198E+03 -3.7518E+03  0.0000E+00  2.5320E+03  0.0000E+00  0.0000E+00  0.0000E+00
      0.1  3.9706E+03  0.0000E+00  0.0000E+00  0.0000E+00  9.0000E+01  1.0000E+02  1.0000E+02  0.0000E+00  5.3531E+00

  rolling  2.0558E+03  3.1721E+02  5.9994E+02 -4.7493E+02  0.0000E+00  4.2030E+02  5.6531E+02  8.9270E+01  0.0000E+00
 averages  3.3624E+03  0.0000E+00 -1.0078E+03 -3.9000E+03  0.0000E+00  2.8923E+03  0.0000E+00  0.0000E+00  0.0000E+00
           3.9706E+03  0.0000E+00  0.0000E+00  0.0000E+00  9.0000E+01  1.0000E+02  1.0000E+02  0.0000E+00  5.3926E+00
 ------------------------------------------------------------------------------------------------------------------------
       11  2.0587E+03  2.9131E+02  7.2173E+02 -4.8996E+02  0.0000E+00  4.5867E+02  6.6376E+02  8.9262E+01  0.0000E+00
      0.0  4.2054E+03  0.0000E+00 -3.7659E+03 -3.6447E+03  0.0000E+00 -1.2121E+02  0.0000E+00  0.0000E+00  0.0000E+00
      0.1  3.9706E+03  0.0000E+00  0.0000E+00  0.0000E+00  9.0000E+01  1.0000E+02  1.0000E+02  0.0000E+00  8.8600E+00

  rolling  2.0561E+03  3.1486E+02  6.1102E+02 -4.7630E+02  0.0000E+00  4.2379E+02  5.7426E+02  8.9269E+01  0.0000E+00
 averages  3.4390E+03  0.0000E+00 -1.2585E+03 -3.8768E+03  0.0000E+00  2.6183E+03  0.0000E+00  0.0000E+00  0.0000E+00
           3.9706E+03  0.0000E+00  0.0000E+00  0.0000E+00  9.0000E+01  1.0000E+02  1.0000E+02  0.0000E+00  5.7078E+00
 ------------------------------------------------------------------------------------------------------------------------
       12  2.0599E+03  2.9868E+02  6.8908E+02 -4.9733E+02  0.0000E+00  4.3878E+02  6.5912E+02  8.8514E+01  0.0000E+00
      0.0  4.9649E+03  0.0000E+00 -5.9734E+03 -3.5330E+03  0.0000E+00 -2.4405E+03  0.0000E+00  0.0000E+00  0.0000E+00
      0.1  3.9706E+03  0.0000E+00  0.0000E+00  0.0000E+00  9.0000E+01  1.0000E+02  1.0000E+02  0.0000E+00  1.1990E+01

  rolling  2.0564E+03  3.1351E+02  6.1752E+02 -4.7805E+02  0.0000E+00  4.2504E+02  5.8133E+02  8.9206E+01  0.0000E+00
 averages  3.5662E+03  0.0000E+00 -1.6514E+03 -3.8482E+03  0.0000E+00  2.1967E+03  0.0000E+00  0.0000E+00  0.0000E+00
           3.9706E+03  0.0000E+00  0.0000E+00  0.0000E+00  9.0000E+01  1.0000E+02  1.0000E+02  0.0000E+00  6.2314E+00
 ------------------------------------------------------------------------------------------------------------------------
       13  2.0576E+03  3.1407E+02  6.1615E+02 -5.0450E+02  0.0000E+00  3.9211E+02  6.4095E+02  8.7595E+01  0.0000E+00
      0.0  5.3670E+03  0.0000E+00 -7.0454E+03 -3.4275E+03  0.0000E+00 -3.6179E+03  0.0000E+00  0.0000E+00  0.0000E+00
      0.1  3.9706E+03  0.0000E+00  0.0000E+00  0.0000E+00  9.0000E+01  1.0000E+02  1.0000E+02  0.0000E+00  1.3659E+01

  rolling  2.0565E+03  3.1355E+02  6.1742E+02 -4.8009E+02  0.0000E+00  4.2251E+02  5.8592E+02  8.9082E+01  0.0000E+00
 averages  3.7047E+03  0.0000E+00 -2.0664E+03 -3.8158E+03  0.0000E+00  1.7495E+03  0.0000E+00  0.0000E+00  0.0000E+00
           3.9706E+03  0.0000E+00  0.0000E+00  0.0000E+00  9.0000E+01  1.0000E+02  1.0000E+02  0.0000E+00  6.8027E+00
 ------------------------------------------------------------------------------------------------------------------------
       14  2.0519E+03  3.2923E+02  5.4088E+02 -5.1115E+02  0.0000E+00  3.4942E+02  6.1587E+02  8.6744E+01  0.0000E+00
      0.0  5.2319E+03  0.0000E+00 -6.5177E+03 -3.3333E+03  0.0000E+00 -3.1844E+03  0.0000E+00  0.0000E+00  0.0000E+00
      0.1  3.9706E+03  0.0000E+00  0.0000E+00  0.0000E+00  9.0000E+01  1.0000E+02  1.0000E+02  0.0000E+00  1.3125E+01

  rolling  2.0562E+03  3.1467E+02  6.1195E+02 -4.8231E+02  0.0000E+00  4.1729E+02  5.8805E+02  8.8915E+01  0.0000E+00
 averages  3.8138E+03  0.0000E+00 -2.3843E+03 -3.7814E+03  0.0000E+00  1.3970E+03  0.0000E+00  0.0000E+00  0.0000E+00
           3.9706E+03  0.0000E+00  0.0000E+00  0.0000E+00  9.0000E+01  1.0000E+02  1.0000E+02  0.0000E+00  7.2543E+00
 ------------------------------------------------------------------------------------------------------------------------
       15  2.0521E+03  3.2889E+02  5.4261E+02 -5.1757E+02  0.0000E+00  3.8227E+02  5.9179E+02  8.6122E+01  0.0000E+00
      0.0  4.5409E+03  0.0000E+00 -4.4475E+03 -3.2457E+03  0.0000E+00 -1.2018E+03  0.0000E+00  0.0000E+00  0.0000E+00
      0.1  3.9706E+03  0.0000E+00  0.0000E+00  0.0000E+00  9.0000E+01  1.0000E+02  1.0000E+02  0.0000E+00  1.0272E+01

  rolling  2.0559E+03  3.1562E+02  6.0733E+02 -4.8466E+02  0.0000E+00  4.1495E+02  5.8830E+02  8.8729E+01  0.0000E+00
 averages  3.8622E+03  0.0000E+00 -2.5219E+03 -3.7456E+03  0.0000E+00  1.2238E+03  0.0000E+00  0.0000E+00  0.0000E+00
           3.9706E+03  0.0000E+00  0.0000E+00  0.0000E+00  9.0000E+01  1.0000E+02  1.0000E+02  0.0000E+00  7.4555E+00
 ------------------------------------------------------------------------------------------------------------------------
       16  2.0603E+03  3.1513E+02  6.1405E+02 -5.2458E+02  0.0000E+00  4.7814E+02  5.7473E+02  8.5761E+01  0.0000E+00
      0.0  3.5558E+03  0.0000E+00 -1.5939E+03 -3.1525E+03  0.0000E+00  1.5586E+03  0.0000E+00  0.0000E+00  0.0000E+00
      0.1  3.9706E+03  0.0000E+00  0.0000E+00  0.0000E+00  9.0000E+01  1.0000E+02  1.0000E+02  0.0000E+00  6.1725E+00

  rolling  2.0562E+03  3.1559E+02  6.0775E+02 -4.8715E+02  0.0000E+00  4.1890E+02  5.8746E+02  8.8544E+01  0.0000E+00
 averages  3.8431E+03  0.0000E+00 -2.4639E+03 -3.7086E+03  0.0000E+00  1.2447E+03  0.0000E+00  0.0000E+00  0.0000E+00
           3.9706E+03  0.0000E+00  0.0000E+00  0.0000E+00  9.0000E+01  1.0000E+02  1.0000E+02  0.0000E+00  7.3754E+00
 ------------------------------------------------------------------------------------------------------------------------
 ------------------------------------------------------------------------------------------------------------------------

     step     eng_tot    temp_tot     eng_cfg     eng_vdw     eng_cou     eng_bnd     eng_ang     eng_dih     eng_tet
 time(ps)      eng_pv    temp_rot     vir_cfg     vir_vdw     vir_cou     vir_bnd     vir_ang     vir_con     vir_tet
 cpu  (s)      volume    temp_shl     eng_shl     vir_shl       alpha        beta       gamma     vir_pmf       press

 ------------------------------------------------------------------------------------------------------------------------
       17  2.0648E+03  3.1180E+02  6.3371E+02 -5.3227E+02  0.0000E+00  5.1302E+02  5.6737E+02  8.5589E+01  0.0000E+00
      0.0  2.7475E+03  0.0000E+00  8.1386E+02 -3.0500E+03  0.0000E+00  3.8638E+03  0.0000E+00  0.0000E+00  0.0000E+00
      0.1  3.9706E+03  0.0000E+00  0.0000E+00  0.0000E+00  9.0000E+01  1.0000E+02  1.0000E+02  0.0000E+00  2.8180E+00

  rolling  2.0567E+03  3.1537E+02  6.0927E+02 -4.8981E+02  0.0000E+00  4.2444E+02  5.8627E+02  8.8370E+01  0.0000E+00
 averages  3.7786E+03  0.0000E+00 -2.2711E+03 -3.6698E+03  0.0000E+00  1.3988E+03  0.0000E+00  0.0000E+00  0.0000E+00
           3.9706E+03  0.0000E+00  0.0000E+00  0.0000E+00  9.0000E+01  1.0000E+02  1.0000E+02  0.0000E+00  7.1073E+00
 ------------------------------------------------------------------------------------------------------------------------
       18  2.0568E+03  3.3055E+02  5.3969E+02 -5.3978E+02  0.0000E+00  4.2425E+02  5.6971E+02  8.5506E+01  0.0000E+00
      0.0  2.4621E+03  0.0000E+00  1.8182E+03 -2.9478E+03  0.0000E+00  4.7660E+03  0.0000E+00  0.0000E+00  0.0000E+00
      0.1  3.9706E+03  0.0000E+00  0.0000E+00  0.0000E+00  9.0000E+01  1.0000E+02  1.0000E+02  0.0000E+00  1.6729E+00

  rolling  2.0567E+03  3.1621E+02  6.0541E+02 -4.9258E+02  0.0000E+00  4.2443E+02  5.8535E+02  8.8211E+01  0.0000E+00
 averages  3.7055E+03  0.0000E+00 -2.0439E+03 -3.6297E+03  0.0000E+00  1.5858E+03  0.0000E+00  0.0000E+00  0.0000E+00
           3.9706E+03  0.0000E+00  0.0000E+00  0.0000E+00  9.0000E+01  1.0000E+02  1.0000E+02  0.0000E+00  6.8054E+00
 ------------------------------------------------------------------------------------------------------------------------
       19  2.0469E+03  3.4803E+02  4.4956E+02 -5.4645E+02  0.0000E+00  3.3020E+02  5.8036E+02  8.5442E+01  0.0000E+00
      0.0  2.6745E+03  0.0000E+00  1.3118E+03 -2.8559E+03  0.0000E+00  4.1677E+03  0.0000E+00  0.0000E+00  0.0000E+00
      0.1  3.9706E+03  0.0000E+00  0.0000E+00  0.0000E+00  9.0000E+01  1.0000E+02  1.0000E+02  0.0000E+00  2.5905E+00

  rolling  2.0562E+03  3.1789E+02  5.9721E+02 -4.9542E+02  0.0000E+00  4.1947E+02  5.8509E+02  8.8065E+01  0.0000E+00
 averages  3.6512E+03  0.0000E+00 -1.8673E+03 -3.5890E+03  0.0000E+00  1.7217E+03  0.0000E+00  0.0000E+00  0.0000E+00
           3.9706E+03  0.0000E+00  0.0000E+00  0.0000E+00  9.0000E+01  1.0000E+02  1.0000E+02  0.0000E+00  6.5835E+00
 ------------------------------------------------------------------------------------------------------------------------
       20  2.0507E+03  3.3672E+02  5.0535E+02 -5.5170E+02  0.0000E+00  3.7455E+02  5.9712E+02  8.5381E+01  0.0000E+00
      0.0  3.1328E+03  0.0000E+00 -1.5549E+02 -2.7805E+03  0.0000E+00  2.6250E+03  0.0000E+00  0.0000E+00  0.0000E+00
      0.1  3.9706E+03  0.0000E+00  0.0000E+00  0.0000E+00  9.0000E+01  1.0000E+02  1.0000E+02  0.0000E+00  4.4663E+00

  rolling  2.0559E+03  3.1883E+02  5.9261E+02 -4.9823E+02  0.0000E+00  4.1722E+02  5.8569E+02  8.7931E+01  0.0000E+00
 averages  3.6253E+03  0.0000E+00 -1.7817E+03 -3.5486E+03  0.0000E+00  1.7669E+03  0.0000E+00  0.0000E+00  0.0000E+00
           3.9706E+03  0.0000E+00  0.0000E+00  0.0000E+00  9.0000E+01  1.0000E+02  1.0000E+02  0.0000E+00  6.4777E+00
 ------------------------------------------------------------------------------------------------------------------------
       21  2.0638E+03  3.0740E+02  6.5295E+02 -5.5588E+02  0.0000E+00  5.0675E+02  6.1675E+02  8.5335E+01  0.0000E+00
      0.0  3.6533E+03  0.0000E+00 -1.9469E+03 -2.7194E+03  0.0000E+00  7.7251E+02  0.0000E+00  0.0000E+00  0.0000E+00
      0.2  3.9706E+03  0.0000E+00  0.0000E+00  0.0000E+00  9.0000E+01  1.0000E+02  1.0000E+02  0.0000E+00  6.5606E+00

  rolling  2.0563E+03  3.1828E+02  5.9549E+02 -5.0098E+02  0.0000E+00  4.2148E+02  5.8717E+02  8.7807E+01  0.0000E+00
 averages  3.6267E+03  0.0000E+00 -1.7895E+03 -3.5091E+03  0.0000E+00  1.7195E+03  0.0000E+00  0.0000E+00  0.0000E+00
           3.9706E+03  0.0000E+00  0.0000E+00  0.0000E+00  9.0000E+01  1.0000E+02  1.0000E+02  0.0000E+00  6.4816E+00
 ------------------------------------------------------------------------------------------------------------------------
       22  2.0674E+03  2.9668E+02  7.0577E+02 -5.5941E+02  0.0000E+00  5.4540E+02  6.3449E+02  8.5298E+01  0.0000E+00
      0.0  4.1546E+03  0.0000E+00 -3.5381E+03 -2.6665E+03  0.0000E+00 -8.7158E+02  0.0000E+00  0.0000E+00  0.0000E+00
      0.2  3.9706E+03  0.0000E+00  0.0000E+00  0.0000E+00  9.0000E+01  1.0000E+02  1.0000E+02  0.0000E+00  8.6145E+00

  rolling  2.0568E+03  3.1730E+02  6.0050E+02 -5.0363E+02  0.0000E+00  4.2712E+02  5.8932E+02  8.7693E+01  0.0000E+00
 averages  3.6507E+03  0.0000E+00 -1.8690E+03 -3.4708E+03  0.0000E+00  1.6018E+03  0.0000E+00  0.0000E+00  0.0000E+00
           3.9706E+03  0.0000E+00  0.0000E+00  0.0000E+00  9.0000E+01  1.0000E+02  1.0000E+02  0.0000E+00  6.5786E+00
 ------------------------------------------------------------------------------------------------------------------------
       23  2.0570E+03  3.1517E+02  6.1053E+02 -5.6304E+02  0.0000E+00  4.4354E+02  6.4480E+02  8.5225E+01  0.0000E+00
      0.0  4.4709E+03  0.0000E+00 -4.3486E+03 -2.6142E+03  0.0000E+00 -1.7344E+03  0.0000E+00  0.0000E+00  0.0000E+00
      0.2  3.9706E+03  0.0000E+00  0.0000E+00  0.0000E+00  9.0000E+01  1.0000E+02  1.0000E+02  0.0000E+00  9.9630E+00

  rolling  2.0568E+03  3.1721E+02  6.0094E+02 -5.0622E+02  0.0000E+00  4.2783E+02  5.9173E+02  8.7586E+01  0.0000E+00
 averages  3.6863E+03  0.0000E+00 -1.9768E+03 -3.4335E+03  0.0000E+00  1.4567E+03  0.0000E+00  0.0000E+00  0.0000E+00
           3.9706E+03  0.0000E+00  0.0000E+00  0.0000E+00  9.0000E+01  1.0000E+02  1.0000E+02  0.0000E+00  6.7257E+00
 ------------------------------------------------------------------------------------------------------------------------
       24  2.0487E+03  3.3426E+02  5.1452E+02 -5.6669E+02  0.0000E+00  3.5247E+02  6.4368E+02  8.5059E+01  0.0000E+00
      0.0  4.3609E+03  0.0000E+00 -3.8685E+03 -2.5645E+03  0.0000E+00 -1.3040E+03  0.0000E+00  0.0000E+00  0.0000E+00
      0.2  3.9706E+03  0.0000E+00  0.0000E+00  0.0000E+00  9.0000E+01  1.0000E+02  1.0000E+02  0.0000E+00  9.5438E+00

  rolling  2.0565E+03  3.1792E+02  5.9733E+02 -5.0874E+02  0.0000E+00  4.2469E+02  5.9390E+02  8.7481E+01  0.0000E+00
 averages  3.7144E+03  0.0000E+00 -2.0556E+03 -3.3973E+03  0.0000E+00  1.3417E+03  0.0000E+00  0.0000E+00  0.0000E+00
           3.9706E+03  0.0000E+00  0.0000E+00  0.0000E+00  9.0000E+01  1.0000E+02  1.0000E+02  0.0000E+00  6.8431E+00
 ------------------------------------------------------------------------------------------------------------------------
 ------------------------------------------------------------------------------------------------------------------------

     step     eng_tot    temp_tot     eng_cfg     eng_vdw     eng_cou     eng_bnd     eng_ang     eng_dih     eng_tet
 time(ps)      eng_pv    temp_rot     vir_cfg     vir_vdw     vir_cou     vir_bnd     vir_ang     vir_con     vir_tet
 cpu  (s)      volume    temp_shl     eng_shl     vir_shl       alpha        beta       gamma     vir_pmf       press

 ------------------------------------------------------------------------------------------------------------------------
       25  2.0538E+03  3.3023E+02  5.3812E+02 -5.6976E+02  0.0000E+00  3.9226E+02  6.3084E+02  8.4776E+01  0.0000E+00
      0.0  3.7816E+03  0.0000E+00 -2.1521E+03 -2.5264E+03  0.0000E+00  3.7435E+02  0.0000E+00  0.0000E+00  0.0000E+00
      0.2  3.9706E+03  0.0000E+00  0.0000E+00  0.0000E+00  9.0000E+01  1.0000E+02  1.0000E+02  0.0000E+00  7.1313E+00

  rolling  2.0564E+03  3.1841E+02  5.9497E+02 -5.1118E+02  0.0000E+00  4.2339E+02  5.9538E+02  8.7372E+01  0.0000E+00
 averages  3.7171E+03  0.0000E+00 -2.0595E+03 -3.3625E+03  0.0000E+00  1.3030E+03  0.0000E+00  0.0000E+00  0.0000E+00
           3.9706E+03  0.0000E+00  0.0000E+00  0.0000E+00  9.0000E+01  1.0000E+02  1.0000E+02  0.0000E+00  6.8547E+00
 ------------------------------------------------------------------------------------------------------------------------
       26  2.0627E+03  3.1657E+02  6.0978E+02 -5.7182E+02  0.0000E+00  4.8742E+02  6.0975E+02  8.4428E+01  0.0000E+00
      0.0  3.0219E+03  0.0000E+00  2.8261E+01 -2.5053E+03  0.0000E+00  2.5336E+03  0.0000E+00  0.0000E+00  0.0000E+00
      0.2  3.9706E+03  0.0000E+00  0.0000E+00  0.0000E+00  9.0000E+01  1.0000E+02  1.0000E+02  0.0000E+00  3.9591E+00

  rolling  2.0566E+03  3.1834E+02  5.9554E+02 -5.1351E+02  0.0000E+00  4.2586E+02  5.9593E+02  8.7259E+01  0.0000E+00
 averages  3.6904E+03  0.0000E+00 -1.9792E+03 -3.3295E+03  0.0000E+00  1.3503E+03  0.0000E+00  0.0000E+00  0.0000E+00
           3.9706E+03  0.0000E+00  0.0000E+00  0.0000E+00  9.0000E+01  1.0000E+02  1.0000E+02  0.0000E+00  6.7433E+00
 ------------------------------------------------------------------------------------------------------------------------
       27  2.0621E+03  3.1872E+02  5.9928E+02 -5.7280E+02  0.0000E+00  5.0237E+02  5.8557E+02  8.4151E+01  0.0000E+00
      0.0  2.4597E+03  0.0000E+00  1.7328E+03 -2.4980E+03  0.0000E+00  4.2308E+03  0.0000E+00  0.0000E+00  0.0000E+00
      0.2  3.9706E+03  0.0000E+00  0.0000E+00  0.0000E+00  9.0000E+01  1.0000E+02  1.0000E+02  0.0000E+00  1.6411E+00

  rolling  2.0568E+03  3.1836E+02  5.9567E+02 -5.1570E+02  0.0000E+00  4.2869E+02  5.9554E+02  8.7144E+01  0.0000E+00
 averages  3.6448E+03  0.0000E+00 -1.8417E+03 -3.2987E+03  0.0000E+00  1.4570E+03  0.0000E+00  0.0000E+00  0.0000E+00
           3.9706E+03  0.0000E+00  0.0000E+00  0.0000E+00  9.0000E+01  1.0000E+02  1.0000E+02  0.0000E+00  6.5543E+00
 ------------------------------------------------------------------------------------------------------------------------
       28  2.0547E+03  3.3602E+02  5.1252E+02 -5.7344E+02  0.0000E+00  4.3883E+02  5.6300E+02  8.4128E+01  0.0000E+00
      0.0  2.2462E+03  0.0000E+00  2.5099E+03 -2.4933E+03  0.0000E+00  5.0031E+03  0.0000E+00  0.0000E+00  0.0000E+00
      0.2  3.9706E+03  0.0000E+00  0.0000E+00  0.0000E+00  9.0000E+01  1.0000E+02  1.0000E+02  0.0000E+00  7.9044E-01

  rolling  2.0567E+03  3.1899E+02  5.9270E+02 -5.1777E+02  0.0000E+00  4.2905E+02  5.9438E+02  8.7036E+01  0.0000E+00
 averages  3.5948E+03  0.0000E+00 -1.6863E+03 -3.2700E+03  0.0000E+00  1.5837E+03  0.0000E+00  0.0000E+00  0.0000E+00
           3.9706E+03  0.0000E+00  0.0000E+00  0.0000E+00  9.0000E+01  1.0000E+02  1.0000E+02  0.0000E+00  6.3485E+00
 ------------------------------------------------------------------------------------------------------------------------
       29  2.0526E+03  3.4832E+02  4.5392E+02 -5.7419E+02  0.0000E+00  3.9821E+02  5.4538E+02  8.4520E+01  0.0000E+00
      0.0  2.3024E+03  0.0000E+00  2.4476E+03 -2.4826E+03  0.0000E+00  4.9302E+03  0.0000E+00  0.0000E+00  0.0000E+00
      0.2  3.9706E+03  0.0000E+00  0.0000E+00  0.0000E+00  9.0000E+01  1.0000E+02  1.0000E+02  0.0000E+00  1.0314E+00

  rolling  2.0566E+03  3.2000E+02  5.8792E+02 -5.1971E+02  0.0000E+00  4.2799E+02  5.9269E+02  8.6950E+01  0.0000E+00
 averages  3.5503E+03  0.0000E+00 -1.5438E+03 -3.2428E+03  0.0000E+00  1.6991E+03  0.0000E+00  0.0000E+00  0.0000E+00
           3.9706E+03  0.0000E+00  0.0000E+00  0.0000E+00  9.0000E+01  1.0000E+02  1.0000E+02  0.0000E+00  6.1651E+00
 ------------------------------------------------------------------------------------------------------------------------
       30  2.0564E+03  3.4819E+02  4.5835E+02 -5.7555E+02  0.0000E+00  4.1365E+02  5.3485E+02  8.5401E+01  0.0000E+00
      0.0  2.5181E+03  0.0000E+00  1.8110E+03 -2.4590E+03  0.0000E+00  4.2700E+03  0.0000E+00  0.0000E+00  0.0000E+00
      0.2  3.9706E+03  0.0000E+00  0.0000E+00  0.0000E+00  9.0000E+01  1.0000E+02  1.0000E+02  0.0000E+00  1.9057E+00

  rolling  2.0566E+03  3.2094E+02  5.8360E+02 -5.2157E+02  0.0000E+00  4.2751E+02  5.9076E+02  8.6898E+01  0.0000E+00
 averages  3.5159E+03  0.0000E+00 -1.4319E+03 -3.2167E+03  0.0000E+00  1.7847E+03  0.0000E+00  0.0000E+00  0.0000E+00
           3.9706E+03  0.0000E+00  0.0000E+00  0.0000E+00  9.0000E+01  1.0000E+02  1.0000E+02  0.0000E+00  6.0231E+00
 ------------------------------------------------------------------------------------------------------------------------
       31  2.0578E+03  3.4504E+02  4.7421E+02 -5.7790E+02  0.0000E+00  4.3302E+02  5.3237E+02  8.6721E+01  0.0000E+00
      0.0  2.8296E+03  0.0000E+00  8.5188E+02 -2.4172E+03  0.0000E+00  3.2691E+03  0.0000E+00  0.0000E+00  0.0000E+00
      0.2  3.9706E+03  0.0000E+00  0.0000E+00  0.0000E+00  9.0000E+01  1.0000E+02  1.0000E+02  0.0000E+00  3.1855E+00

  rolling  2.0566E+03  3.2171E+02  5.8007E+02 -5.2339E+02  0.0000E+00  4.2769E+02  5.8888E+02  8.6892E+01  0.0000E+00
 averages  3.4937E+03  0.0000E+00 -1.3583E+03 -3.1909E+03  0.0000E+00  1.8326E+03  0.0000E+00  0.0000E+00  0.0000E+00
           3.9706E+03  0.0000E+00  0.0000E+00  0.0000E+00  9.0000E+01  1.0000E+02  1.0000E+02  0.0000E+00  5.9316E+00
 ------------------------------------------------------------------------------------------------------------------------
       32  2.0555E+03  3.4321E+02  4.8031E+02 -5.8161E+02  0.0000E+00  4.3652E+02  5.3709E+02  8.8316E+01  0.0000E+00
      0.0  3.1531E+03  0.0000E+00 -1.4238E+02 -2.3529E+03  0.0000E+00  2.2106E+03  0.0000E+00  0.0000E+00  0.0000E+00
      0.2  3.9706E+03  0.0000E+00  0.0000E+00  0.0000E+00  9.0000E+01  1.0000E+02  1.0000E+02  0.0000E+00  4.5302E+00

  rolling  2.0566E+03  3.2239E+02  5.7695E+02 -5.2521E+02  0.0000E+00  4.2796E+02  5.8726E+02  8.6937E+01  0.0000E+00
 averages  3.4831E+03  0.0000E+00 -1.3203E+03 -3.1647E+03  0.0000E+00  1.8444E+03  0.0000E+00  0.0000E+00  0.0000E+00
           3.9706E+03  0.0000E+00  0.0000E+00  0.0000E+00  9.0000E+01  1.0000E+02  1.0000E+02  0.0000E+00  5.8878E+00
 ------------------------------------------------------------------------------------------------------------------------
 ------------------------------------------------------------------------------------------------------------------------

     step     eng_tot    temp_tot     eng_cfg     eng_vdw     eng_cou     eng_bnd     eng_ang     eng_dih     eng_tet
 time(ps)      eng_pv    temp_rot     vir_cfg     vir_vdw     vir_cou     vir_bnd     vir_ang     vir_con     vir_tet
 cpu  (s)      volume    temp_shl     eng_shl     vir_shl       alpha        beta       gamma     vir_pmf       press

 ------------------------------------------------------------------------------------------------------------------------
       33  2.0562E+03  3.3787E+02  5.0549E+02 -5.8660E+02  0.0000E+00  4.5577E+02  5.4636E+02  8.9964E+01  0.0000E+00
      0.0  3.4021E+03  0.0000E+00 -9.3628E+02 -2.2702E+03  0.0000E+00  1.3340E+03  0.0000E+00  0.0000E+00  0.0000E+00
      0.2  3.9706E+03  0.0000E+00  0.0000E+00  0.0000E+00  9.0000E+01  1.0000E+02  1.0000E+02  0.0000E+00  5.5551E+00

  rolling  2.0566E+03  3.2286E+02  5.7479E+02 -5.2707E+02  0.0000E+00  4.2881E+02  5.8602E+02  8.7028E+01  0.0000E+00
 averages  3.4806E+03  0.0000E+00 -1.3086E+03 -3.1376E+03  0.0000E+00  1.8290E+03  0.0000E+00  0.0000E+00  0.0000E+00
           3.9706E+03  0.0000E+00  0.0000E+00  0.0000E+00  9.0000E+01  1.0000E+02  1.0000E+02  0.0000E+00  5.8777E+00
 ------------------------------------------------------------------------------------------------------------------------
       34  2.0602E+03  3.3196E+02  5.3659E+02 -5.9171E+02  0.0000E+00  4.8020E+02  5.5664E+02  9.1455E+01  0.0000E+00
      0.0  3.5898E+03  0.0000E+00 -1.5417E+03 -2.1860E+03  0.0000E+00  6.4432E+02  0.0000E+00  0.0000E+00  0.0000E+00
      0.2  3.9706E+03  0.0000E+00  0.0000E+00  0.0000E+00  9.0000E+01  1.0000E+02  1.0000E+02  0.0000E+00  6.3134E+00

  rolling  2.0567E+03  3.2312E+02  5.7366E+02 -5.2897E+02  0.0000E+00  4.3032E+02  5.8516E+02  8.7159E+01  0.0000E+00
 averages  3.4838E+03  0.0000E+00 -1.3155E+03 -3.1096E+03  0.0000E+00  1.7941E+03  0.0000E+00  0.0000E+00  0.0000E+00
           3.9706E+03  0.0000E+00  0.0000E+00  0.0000E+00  9.0000E+01  1.0000E+02  1.0000E+02  0.0000E+00  5.8905E+00
 ------------------------------------------------------------------------------------------------------------------------
       35  2.0593E+03  3.3570E+02  5.1851E+02 -5.9579E+02  0.0000E+00  4.5712E+02  5.6454E+02  9.2635E+01  0.0000E+00
      0.0  3.7925E+03  0.0000E+00 -2.1182E+03 -2.1178E+03  0.0000E+00 -4.3003E-01  0.0000E+00  0.0000E+00  0.0000E+00
      0.2  3.9706E+03  0.0000E+00  0.0000E+00  0.0000E+00  9.0000E+01  1.0000E+02  1.0000E+02  0.0000E+00  7.1538E+00

  rolling  2.0568E+03  3.2348E+02  5.7209E+02 -5.3088E+02  0.0000E+00  4.3108E+02  5.8457E+02  8.7315E+01  0.0000E+00
 averages  3.4927E+03  0.0000E+00 -1.3384E+03 -3.0813E+03  0.0000E+00  1.7429E+03  0.0000E+00  0.0000E+00  0.0000E+00
           3.9706E+03  0.0000E+00  0.0000E+00  0.0000E+00  9.0000E+01  1.0000E+02  1.0000E+02  0.0000E+00  5.9266E+00
 ------------------------------------------------------------------------------------------------------------------------
       36  2.0528E+03  3.4548E+02  4.6715E+02 -5.9850E+02  0.0000E+00  4.0425E+02  5.6796E+02  9.3440E+01  0.0000E+00
      0.0  3.9862E+03  0.0000E+00 -2.6290E+03 -2.0726E+03  0.0000E+00 -5.5637E+02  0.0000E+00  0.0000E+00  0.0000E+00
      0.2  3.9706E+03  0.0000E+00  0.0000E+00  0.0000E+00  9.0000E+01  1.0000E+02  1.0000E+02  0.0000E+00  7.9800E+00

  rolling  2.0566E+03  3.2409E+02  5.6917E+02 -5.3276E+02  0.0000E+00  4.3034E+02  5.8411E+02  8.7485E+01  0.0000E+00
 averages  3.5064E+03  0.0000E+00 -1.3743E+03 -3.0533E+03  0.0000E+00  1.6790E+03  0.0000E+00  0.0000E+00  0.0000E+00
           3.9706E+03  0.0000E+00  0.0000E+00  0.0000E+00  9.0000E+01  1.0000E+02  1.0000E+02  0.0000E+00  5.9837E+00
 ------------------------------------------------------------------------------------------------------------------------
       37  2.0516E+03  3.4371E+02  4.7416E+02 -6.0015E+02  0.0000E+00  4.1347E+02  5.6695E+02  9.3881E+01  0.0000E+00
      0.0  4.0295E+03  0.0000E+00 -2.7786E+03 -2.0457E+03  0.0000E+00 -7.3294E+02  0.0000E+00  0.0000E+00  0.0000E+00
      0.2  3.9706E+03  0.0000E+00  0.0000E+00  0.0000E+00  9.0000E+01  1.0000E+02  1.0000E+02  0.0000E+00  8.1635E+00

  rolling  2.0565E+03  3.2462E+02  5.6661E+02 -5.3458E+02  0.0000E+00  4.2988E+02  5.8364E+02  8.7658E+01  0.0000E+00
 averages  3.5205E+03  0.0000E+00 -1.4122E+03 -3.0260E+03  0.0000E+00  1.6138E+03  0.0000E+00  0.0000E+00  0.0000E+00
           3.9706E+03  0.0000E+00  0.0000E+00  0.0000E+00  9.0000E+01  1.0000E+02  1.0000E+02  0.0000E+00  6.0426E+00
 ------------------------------------------------------------------------------------------------------------------------
       38  2.0596E+03  3.2792E+02  5.5459E+02 -6.0189E+02  0.0000E+00  4.9869E+02  5.6376E+02  9.4027E+01  0.0000E+00
      0.0  3.8502E+03  0.0000E+00 -2.3617E+03 -2.0216E+03  0.0000E+00 -3.4012E+02  0.0000E+00  0.0000E+00  0.0000E+00
      0.2  3.9706E+03  0.0000E+00  0.0000E+00  0.0000E+00  9.0000E+01  1.0000E+02  1.0000E+02  0.0000E+00  7.3905E+00

  rolling  2.0566E+03  3.2471E+02  5.6629E+02 -5.3635E+02  0.0000E+00  4.3169E+02  5.8312E+02  8.7826E+01  0.0000E+00
 averages  3.5292E+03  0.0000E+00 -1.4372E+03 -2.9996E+03  0.0000E+00  1.5624E+03  0.0000E+00  0.0000E+00  0.0000E+00
           3.9706E+03  0.0000E+00  0.0000E+00  0.0000E+00  9.0000E+01  1.0000E+02  1.0000E+02  0.0000E+00  6.0781E+00
 ------------------------------------------------------------------------------------------------------------------------
       39  2.0649E+03  3.2048E+02  5.9405E+02 -6.0450E+02  0.0000E+00  5.4278E+02  5.6179E+02  9.3973E+01  0.0000E+00
      0.0  3.5457E+03  0.0000E+00 -1.5006E+03 -1.9866E+03  0.0000E+00  4.8598E+02  0.0000E+00  0.0000E+00  0.0000E+00
      0.2  3.9706E+03  0.0000E+00  0.0000E+00  0.0000E+00  9.0000E+01  1.0000E+02  1.0000E+02  0.0000E+00  6.1119E+00

  rolling  2.0568E+03  3.2460E+02  5.6700E+02 -5.3810E+02  0.0000E+00  4.3454E+02  5.8257E+02  8.7983E+01  0.0000E+00
 averages  3.5296E+03  0.0000E+00 -1.4388E+03 -2.9736E+03  0.0000E+00  1.5348E+03  0.0000E+00  0.0000E+00  0.0000E+00
           3.9706E+03  0.0000E+00  0.0000E+00  0.0000E+00  9.0000E+01  1.0000E+02  1.0000E+02  0.0000E+00  6.0789E+00
 ------------------------------------------------------------------------------------------------------------------------
       40  2.0579E+03  3.3537E+02  5.1871E+02 -6.0816E+02  0.0000E+00  4.6903E+02  5.6403E+02  9.3823E+01  0.0000E+00
      0.0  3.2292E+03  0.0000E+00 -4.3541E+02 -1.9356E+03  0.0000E+00  1.5002E+03  0.0000E+00  0.0000E+00  0.0000E+00
      0.2  3.9706E+03  0.0000E+00  0.0000E+00  0.0000E+00  9.0000E+01  1.0000E+02  1.0000E+02  0.0000E+00  4.8344E+00

  rolling  2.0568E+03  3.2487E+02  5.6579E+02 -5.3985E+02  0.0000E+00  4.3540E+02  5.8211E+02  8.8129E+01  0.0000E+00
 averages  3.5221E+03  0.0000E+00 -1.4137E+03 -2.9477E+03  0.0000E+00  1.5339E+03  0.0000E+00  0.0000E+00  0.0000E+00
           3.9706E+03  0.0000E+00  0.0000E+00  0.0000E+00  9.0000E+01  1.0000E+02  1.0000E+02  0.0000E+00  6.0478E+00
 ------------------------------------------------------------------------------------------------------------------------
 ------------------------------------------------------------------------------------------------------------------------

     step     eng_tot    temp_tot     eng_cfg     eng_vdw     eng_cou     eng_bnd     eng_ang     eng_dih     eng_tet
 time(ps)      eng_pv    temp_rot     vir_cfg     vir_vdw     vir_cou     vir_bnd     vir_ang     vir_con     vir_tet
 cpu  (s)      volume    temp_shl     eng_shl     vir_shl       alpha        beta       gamma     vir_pmf       press

 ------------------------------------------------------------------------------------------------------------------------
       41  2.0483E+03  3.5264E+02  4.2981E+02 -6.1255E+02  0.0000E+00  3.7688E+02  5.7182E+02  9.3663E+01  0.0000E+00
      0.0  2.8937E+03  0.0000E+00  7.0069E+02 -1.8723E+03  0.0000E+00  2.5730E+03  0.0000E+00  0.0000E+00  0.0000E+00
      0.2  3.9706E+03  0.0000E+00  0.0000E+00  0.0000E+00  9.0000E+01  1.0000E+02  1.0000E+02  0.0000E+00  3.4894E+00

  rolling  2.0566E+03  3.2555E+02  5.6248E+02 -5.4162E+02  0.0000E+00  4.3398E+02  5.8186E+02  8.8264E+01  0.0000E+00
 averages  3.5068E+03  0.0000E+00 -1.3622E+03 -2.9214E+03  0.0000E+00  1.5593E+03  0.0000E+00  0.0000E+00  0.0000E+00
           3.9706E+03  0.0000E+00  0.0000E+00  0.0000E+00  9.0000E+01  1.0000E+02  1.0000E+02  0.0000E+00  5.9854E+00
 ------------------------------------------------------------------------------------------------------------------------
       42  2.0509E+03  3.4563E+02  4.6458E+02 -6.1700E+02  0.0000E+00  4.0376E+02  5.8428E+02  9.3549E+01  0.0000E+00
      0.0  2.5442E+03  0.0000E+00  1.6929E+03 -1.8054E+03  0.0000E+00  3.4982E+03  0.0000E+00  0.0000E+00  0.0000E+00
      0.2  3.9706E+03  0.0000E+00  0.0000E+00  0.0000E+00  9.0000E+01  1.0000E+02  1.0000E+02  0.0000E+00  2.0359E+00

  rolling  2.0565E+03  3.2603E+02  5.6015E+02 -5.4342E+02  0.0000E+00  4.3326E+02  5.8192E+02  8.8390E+01  0.0000E+00
 averages  3.4839E+03  0.0000E+00 -1.2894E+03 -2.8949E+03  0.0000E+00  1.6054E+03  0.0000E+00  0.0000E+00  0.0000E+00
           3.9706E+03  0.0000E+00  0.0000E+00  0.0000E+00  9.0000E+01  1.0000E+02  1.0000E+02  0.0000E+00  5.8914E+00
 ------------------------------------------------------------------------------------------------------------------------
       43  2.0624E+03  3.2213E+02  5.8396E+02 -6.2073E+02  0.0000E+00  5.1235E+02  5.9883E+02  9.3500E+01  0.0000E+00
      0.0  2.3743E+03  0.0000E+00  2.0211E+03 -1.7445E+03  0.0000E+00  3.7656E+03  0.0000E+00  0.0000E+00  0.0000E+00
      0.2  3.9706E+03  0.0000E+00  0.0000E+00  0.0000E+00  9.0000E+01  1.0000E+02  1.0000E+02  0.0000E+00  1.2875E+00

  rolling  2.0566E+03  3.2594E+02  5.6070E+02 -5.4522E+02  0.0000E+00  4.3510E+02  5.8231E+02  8.8509E+01  0.0000E+00
 averages  3.4581E+03  0.0000E+00 -1.2124E+03 -2.8681E+03  0.0000E+00  1.6557E+03  0.0000E+00  0.0000E+00  0.0000E+00
           3.9706E+03  0.0000E+00  0.0000E+00  0.0000E+00  9.0000E+01  1.0000E+02  1.0000E+02  0.0000E+00  5.7843E+00
 ------------------------------------------------------------------------------------------------------------------------
       44  2.0654E+03  3.1398E+02  6.2439E+02 -6.2364E+02  0.0000E+00  5.4228E+02  6.1223E+02  9.3511E+01  0.0000E+00
      0.0  2.6273E+03  0.0000E+00  1.1965E+03 -1.6937E+03  0.0000E+00  2.8902E+03  0.0000E+00  0.0000E+00  0.0000E+00
      0.2  3.9706E+03  0.0000E+00  0.0000E+00  0.0000E+00  9.0000E+01  1.0000E+02  1.0000E+02  0.0000E+00  2.3191E+00

  rolling  2.0568E+03  3.2566E+02  5.6215E+02 -5.4700E+02  0.0000E+00  4.3753E+02  5.8299E+02  8.8623E+01  0.0000E+00
 averages  3.4392E+03  0.0000E+00 -1.1577E+03 -2.8414E+03  0.0000E+00  1.6837E+03  0.0000E+00  0.0000E+00  0.0000E+00
           3.9706E+03  0.0000E+00  0.0000E+00  0.0000E+00  9.0000E+01  1.0000E+02  1.0000E+02  0.0000E+00  5.7056E+00
 ------------------------------------------------------------------------------------------------------------------------
       45  2.0563E+03  3.2991E+02  5.4209E+02 -6.2537E+02  0.0000E+00  4.5263E+02  6.2127E+02  9.3572E+01  0.0000E+00
      0.0  3.2734E+03  0.0000E+00 -6.2301E+02 -1.6593E+03  0.0000E+00  1.0363E+03  0.0000E+00  0.0000E+00  0.0000E+00
      0.2  3.9706E+03  0.0000E+00  0.0000E+00  0.0000E+00  9.0000E+01  1.0000E+02  1.0000E+02  0.0000E+00  5.0236E+00

  rolling  2.0568E+03  3.2576E+02  5.6170E+02 -5.4874E+02  0.0000E+00  4.3787E+02  5.8384E+02  8.8733E+01  0.0000E+00
 averages  3.4355E+03  0.0000E+00 -1.1458E+03 -2.8151E+03  0.0000E+00  1.6693E+03  0.0000E+00  0.0000E+00  0.0000E+00
           3.9706E+03  0.0000E+00  0.0000E+00  0.0000E+00  9.0000E+01  1.0000E+02  1.0000E+02  0.0000E+00  5.6904E+00
 ------------------------------------------------------------------------------------------------------------------------
       46  2.0496E+03  3.4464E+02  4.6789E+02 -6.2561E+02  0.0000E+00  3.7687E+02  6.2295E+02  9.3681E+01  0.0000E+00
      0.0  3.9566E+03  0.0000E+00 -2.5574E+03 -1.6478E+03  0.0000E+00 -9.0954E+02  0.0000E+00  0.0000E+00  0.0000E+00
      0.2  3.9706E+03  0.0000E+00  0.0000E+00  0.0000E+00  9.0000E+01  1.0000E+02  1.0000E+02  0.0000E+00  7.8708E+00

  rolling  2.0567E+03  3.2617E+02  5.5966E+02 -5.5041E+02  0.0000E+00  4.3654E+02  5.8469E+02  8.8840E+01  0.0000E+00
 averages  3.4468E+03  0.0000E+00 -1.1765E+03 -2.7898E+03  0.0000E+00  1.6133E+03  0.0000E+00  0.0000E+00  0.0000E+00
           3.9706E+03  0.0000E+00  0.0000E+00  0.0000E+00  9.0000E+01  1.0000E+02  1.0000E+02  0.0000E+00  5.7378E+00
 ------------------------------------------------------------------------------------------------------------------------
       47  2.0552E+03  3.3936E+02  4.9763E+02 -6.2423E+02  0.0000E+00  4.1313E+02  6.1488E+02  9.3844E+01  0.0000E+00
      0.0  4.3065E+03  0.0000E+00 -3.6388E+03 -1.6616E+03  0.0000E+00 -1.9773E+03  0.0000E+00  0.0000E+00  0.0000E+00
      0.3  3.9706E+03  0.0000E+00  0.0000E+00  0.0000E+00  9.0000E+01  1.0000E+02  1.0000E+02  0.0000E+00  9.2921E+00

  rolling  2.0566E+03  3.2645E+02  5.5834E+02 -5.5198E+02  0.0000E+00  4.3604E+02  5.8533E+02  8.8947E+01  0.0000E+00
 averages  3.4651E+03  0.0000E+00 -1.2289E+03 -2.7658E+03  0.0000E+00  1.5369E+03  0.0000E+00  0.0000E+00  0.0000E+00
           3.9706E+03  0.0000E+00  0.0000E+00  0.0000E+00  9.0000E+01  1.0000E+02  1.0000E+02  0.0000E+00  5.8134E+00
 ------------------------------------------------------------------------------------------------------------------------
       48  2.0629E+03  3.2843E+02  5.5552E+02 -6.2204E+02  0.0000E+00  4.8740E+02  5.9608E+02  9.4078E+01  0.0000E+00
      0.0  4.2007E+03  0.0000E+00 -3.3988E+03 -1.6907E+03  0.0000E+00 -1.7081E+03  0.0000E+00  0.0000E+00  0.0000E+00
      0.3  3.9706E+03  0.0000E+00  0.0000E+00  0.0000E+00  9.0000E+01  1.0000E+02  1.0000E+02  0.0000E+00  8.8237E+00

  rolling  2.0568E+03  3.2649E+02  5.5828E+02 -5.5344E+02  0.0000E+00  4.3711E+02  5.8556E+02  8.9054E+01  0.0000E+00
 averages  3.4804E+03  0.0000E+00 -1.2741E+03 -2.7434E+03  0.0000E+00  1.4693E+03  0.0000E+00  0.0000E+00  0.0000E+00
           3.9706E+03  0.0000E+00  0.0000E+00  0.0000E+00  9.0000E+01  1.0000E+02  1.0000E+02  0.0000E+00  5.8761E+00
 ------------------------------------------------------------------------------------------------------------------------
 ------------------------------------------------------------------------------------------------------------------------

     step     eng_tot    temp_tot     eng_cfg     eng_vdw     eng_cou     eng_bnd     eng_ang     eng_dih     eng_tet
 time(ps)      eng_pv    temp_rot     vir_cfg     vir_vdw     vir_cou     vir_bnd     vir_ang     vir_con     vir_tet
 cpu  (s)      volume    temp_shl     eng_shl     vir_shl       alpha        beta       gamma     vir_pmf       press

 ------------------------------------------------------------------------------------------------------------------------
       49  2.0610E+03  3.3330E+02  5.3128E+02 -6.2008E+02  0.0000E+00  4.8877E+02  5.6819E+02  9.4411E+01  0.0000E+00
      0.0  3.7091E+03  0.0000E+00 -1.8850E+03 -1.7192E+03  0.0000E+00 -1.6571E+02  0.0000E+00  0.0000E+00  0.0000E+00
      0.3  3.9706E+03  0.0000E+00  0.0000E+00  0.0000E+00  9.0000E+01  1.0000E+02  1.0000E+02  0.0000E+00  6.8025E+00

  rolling  2.0568E+03  3.2663E+02  5.5773E+02 -5.5480E+02  0.0000E+00  4.3817E+02  5.8520E+02  8.9163E+01  0.0000E+00
 averages  3.4851E+03  0.0000E+00 -1.2866E+03 -2.7225E+03  0.0000E+00  1.4359E+03  0.0000E+00  0.0000E+00  0.0000E+00
           3.9706E+03  0.0000E+00  0.0000E+00  0.0000E+00  9.0000E+01  1.0000E+02  1.0000E+02  0.0000E+00  5.8950E+00
 ------------------------------------------------------------------------------------------------------------------------
       50  2.0541E+03  3.4984E+02  4.4840E+02 -6.1917E+02  0.0000E+00  4.3672E+02  5.3600E+02  9.4865E+01  0.0000E+00
      0.1  2.9400E+03  0.0000E+00  5.5348E+02 -1.7337E+03  0.0000E+00  2.2872E+03  0.0000E+00  0.0000E+00  0.0000E+00
      0.3  3.9706E+03  0.0000E+00  0.0000E+00  0.0000E+00  9.0000E+01  1.0000E+02  1.0000E+02  0.0000E+00  3.6567E+00

  rolling  2.0568E+03  3.2709E+02  5.5555E+02 -5.5609E+02  0.0000E+00  4.3814E+02  5.8422E+02  8.9277E+01  0.0000E+00
 averages  3.4742E+03  0.0000E+00 -1.2498E+03 -2.7027E+03  0.0000E+00  1.4529E+03  0.0000E+00  0.0000E+00  0.0000E+00
           3.9706E+03  0.0000E+00  0.0000E+00  0.0000E+00  9.0000E+01  1.0000E+02  1.0000E+02  0.0000E+00  5.8503E+00
 ------------------------------------------------------------------------------------------------------------------------
       51  2.0531E+03  3.5935E+02  4.0382E+02 -6.1955E+02  0.0000E+00  4.2151E+02  5.0642E+02  9.5439E+01  0.0000E+00
      0.1  2.0652E+03  0.0000E+00  3.2622E+03 -1.7285E+03  0.0000E+00  4.9907E+03  0.0000E+00  0.0000E+00  0.0000E+00
      0.3  3.9706E+03  0.0000E+00  0.0000E+00  0.0000E+00  9.0000E+01  1.0000E+02  1.0000E+02  0.0000E+00  5.0080E-02

  rolling  2.0567E+03  3.2773E+02  5.5257E+02 -5.5733E+02  0.0000E+00  4.3781E+02  5.8269E+02  8.9398E+01  0.0000E+00
 averages  3.4466E+03  0.0000E+00 -1.1613E+03 -2.6836E+03  0.0000E+00  1.5223E+03  0.0000E+00  0.0000E+00  0.0000E+00
           3.9706E+03  0.0000E+00  0.0000E+00  0.0000E+00  9.0000E+01  1.0000E+02  1.0000E+02  0.0000E+00  5.7365E+00
 ------------------------------------------------------------------------------------------------------------------------
       52  2.0572E+03  3.5840E+02  4.1228E+02 -6.2100E+02  0.0000E+00  4.5071E+02  4.8646E+02  9.6115E+01  0.0000E+00
      0.1  1.3907E+03  0.0000E+00  5.2894E+03 -1.7049E+03  0.0000E+00  6.9942E+03  0.0000E+00  0.0000E+00  0.0000E+00
      0.3  3.9706E+03  0.0000E+00  0.0000E+00  0.0000E+00  9.0000E+01  1.0000E+02  1.0000E+02  0.0000E+00 -2.7510E+00

  rolling  2.0567E+03  3.2832E+02  5.4987E+02 -5.5856E+02  0.0000E+00  4.3806E+02  5.8084E+02  8.9527E+01  0.0000E+00
 averages  3.4070E+03  0.0000E+00 -1.0372E+03 -2.6648E+03  0.0000E+00  1.6275E+03  0.0000E+00  0.0000E+00  0.0000E+00
           3.9706E+03  0.0000E+00  0.0000E+00  0.0000E+00  9.0000E+01  1.0000E+02  1.0000E+02  0.0000E+00  5.5733E+00
 ------------------------------------------------------------------------------------------------------------------------
       53  2.0575E+03  3.5738E+02  4.1723E+02 -6.2335E+02  0.0000E+00  4.6243E+02  4.8127E+02  9.6884E+01  0.0000E+00
      0.1  1.2178E+03  0.0000E+00  5.7994E+03 -1.6643E+03  0.0000E+00  7.4637E+03  0.0000E+00  0.0000E+00  0.0000E+00
      0.3  3.9706E+03  0.0000E+00  0.0000E+00  0.0000E+00  9.0000E+01  1.0000E+02  1.0000E+02  0.0000E+00 -3.4656E+00

  rolling  2.0567E+03  3.2887E+02  5.4737E+02 -5.5978E+02  0.0000E+00  4.3852E+02  5.7896E+02  8.9666E+01  0.0000E+00
 averages  3.3657E+03  0.0000E+00 -9.0825E+02 -2.6459E+03  0.0000E+00  1.7376E+03  0.0000E+00  0.0000E+00  0.0000E+00
           3.9706E+03  0.0000E+00  0.0000E+00  0.0000E+00  9.0000E+01  1.0000E+02  1.0000E+02  0.0000E+00  5.4028E+00
 ------------------------------------------------------------------------------------------------------------------------
       54  2.0539E+03  3.5729E+02  4.1408E+02 -6.2696E+02  0.0000E+00  4.5020E+02  4.9308E+02  9.7762E+01  0.0000E+00
      0.1  1.6080E+03  0.0000E+00  4.6176E+03 -1.6033E+03  0.0000E+00  6.2209E+03  0.0000E+00  0.0000E+00  0.0000E+00
      0.3  3.9706E+03  0.0000E+00  0.0000E+00  0.0000E+00  9.0000E+01  1.0000E+02  1.0000E+02  0.0000E+00 -1.8407E+00

  rolling  2.0567E+03  3.2939E+02  5.4490E+02 -5.6102E+02  0.0000E+00  4.3874E+02  5.7737E+02  8.9816E+01  0.0000E+00
 averages  3.3332E+03  0.0000E+00 -8.0592E+02 -2.6266E+03  0.0000E+00  1.8207E+03  0.0000E+00  0.0000E+00  0.0000E+00
           3.9706E+03  0.0000E+00  0.0000E+00  0.0000E+00  9.0000E+01  1.0000E+02  1.0000E+02  0.0000E+00  5.2686E+00
 ------------------------------------------------------------------------------------------------------------------------
       55  2.0548E+03  3.4960E+02  4.5032E+02 -6.3147E+02  0.0000E+00  4.6195E+02  5.2105E+02  9.8786E+01  0.0000E+00
      0.1  2.3615E+03  0.0000E+00  2.2890E+03 -1.5276E+03  0.0000E+00  3.8167E+03  0.0000E+00  0.0000E+00  0.0000E+00
      0.3  3.9706E+03  0.0000E+00  0.0000E+00  0.0000E+00  9.0000E+01  1.0000E+02  1.0000E+02  0.0000E+00  1.2658E+00

  rolling  2.0566E+03  3.2976E+02  5.4318E+02 -5.6230E+02  0.0000E+00  4.3916E+02  5.7635E+02  8.9979E+01  0.0000E+00
 averages  3.3155E+03  0.0000E+00 -7.4965E+02 -2.6066E+03  0.0000E+00  1.8570E+03  0.0000E+00  0.0000E+00  0.0000E+00
           3.9706E+03  0.0000E+00  0.0000E+00  0.0000E+00  9.0000E+01  1.0000E+02  1.0000E+02  0.0000E+00  5.1959E+00
 ------------------------------------------------------------------------------------------------------------------------
       56  2.0601E+03  3.3695E+02  5.1363E+02 -6.3543E+02  0.0000E+00  4.8749E+02  5.6160E+02  9.9976E+01  0.0000E+00
      0.1  3.2017E+03  0.0000E+00 -3.3192E+02 -1.4586E+03  0.0000E+00  1.1267E+03  0.0000E+00  0.0000E+00  0.0000E+00
      0.3  3.9706E+03  0.0000E+00  0.0000E+00  0.0000E+00  9.0000E+01  1.0000E+02  1.0000E+02  0.0000E+00  4.7119E+00

  rolling  2.0567E+03  3.2989E+02  5.4266E+02 -5.6361E+02  0.0000E+00  4.4002E+02  5.7609E+02  9.0157E+01  0.0000E+00
 averages  3.3135E+03  0.0000E+00 -7.4219E+02 -2.5861E+03  0.0000E+00  1.8439E+03  0.0000E+00  0.0000E+00  0.0000E+00
           3.9706E+03  0.0000E+00  0.0000E+00  0.0000E+00  9.0000E+01  1.0000E+02  1.0000E+02  0.0000E+00  5.1872E+00
 ------------------------------------------------------------------------------------------------------------------------
 ------------------------------------------------------------------------------------------------------------------------

     step     eng_tot    temp_tot     eng_cfg     eng_vdw     eng_cou     eng_bnd     eng_ang     eng_dih     eng_tet
 time(ps)      eng_pv    temp_rot     vir_cfg     vir_vdw     vir_cou     vir_bnd     vir_ang     vir_con     vir_tet
 cpu  (s)      volume    temp_shl     eng_shl     vir_shl       alpha        beta       gamma     vir_pmf       press

 ------------------------------------------------------------------------------------------------------------------------
       57  2.0603E+03  3.3255E+02  5.3404E+02 -6.3740E+02  0.0000E+00  4.6155E+02  6.0858E+02  1.0131E+02  0.0000E+00
      0.1  3.8853E+03  0.0000E+00 -2.4225E+03 -1.4175E+03  0.0000E+00 -1.0050E+03  0.0000E+00  0.0000E+00  0.0000E+00
      0.3  3.9706E+03  0.0000E+00  0.0000E+00  0.0000E+00  9.0000E+01  1.0000E+02  1.0000E+02  0.0000E+00  7.5327E+00

  rolling  2.0568E+03  3.2993E+02  5.4250E+02 -5.6491E+02  0.0000E+00  4.4040E+02  5.7666E+02  9.0353E+01  0.0000E+00
 averages  3.3235E+03  0.0000E+00 -7.7167E+02 -2.5656E+03  0.0000E+00  1.7939E+03  0.0000E+00  0.0000E+00  0.0000E+00
           3.9706E+03  0.0000E+00  0.0000E+00  0.0000E+00  9.0000E+01  1.0000E+02  1.0000E+02  0.0000E+00  5.2284E+00
 ------------------------------------------------------------------------------------------------------------------------
       58  2.0540E+03  3.3582E+02  5.1273E+02 -6.3751E+02  0.0000E+00  3.9376E+02  6.5379E+02  1.0269E+02  0.0000E+00
      0.1  4.1816E+03  0.0000E+00 -3.3001E+03 -1.4058E+03  0.0000E+00 -1.8943E+03  0.0000E+00  0.0000E+00  0.0000E+00
      0.3  3.9706E+03  0.0000E+00  0.0000E+00  0.0000E+00  9.0000E+01  1.0000E+02  1.0000E+02  0.0000E+00  8.7813E+00

  rolling  2.0567E+03  3.3004E+02  5.4199E+02 -5.6616E+02  0.0000E+00  4.3960E+02  5.7799E+02  9.0566E+01  0.0000E+00
 averages  3.3383E+03  0.0000E+00 -8.1526E+02 -2.5456E+03  0.0000E+00  1.7303E+03  0.0000E+00  0.0000E+00  0.0000E+00
           3.9706E+03  0.0000E+00  0.0000E+00  0.0000E+00  9.0000E+01  1.0000E+02  1.0000E+02  0.0000E+00  5.2896E+00
 ------------------------------------------------------------------------------------------------------------------------
       59  2.0524E+03  3.2985E+02  5.3852E+02 -6.3639E+02  0.0000E+00  3.8261E+02  6.8832E+02  1.0398E+02  0.0000E+00
      0.1  3.9446E+03  0.0000E+00 -2.6487E+03 -1.4150E+03  0.0000E+00 -1.2337E+03  0.0000E+00  0.0000E+00  0.0000E+00
      0.3  3.9706E+03  0.0000E+00  0.0000E+00  0.0000E+00  9.0000E+01  1.0000E+02  1.0000E+02  0.0000E+00  7.8098E+00

  rolling  2.0567E+03  3.3003E+02  5.4193E+02 -5.6735E+02  0.0000E+00  4.3863E+02  5.7986E+02  9.0793E+01  0.0000E+00
 averages  3.3486E+03  0.0000E+00 -8.4634E+02 -2.5264E+03  0.0000E+00  1.6801E+03  0.0000E+00  0.0000E+00  0.0000E+00
           3.9706E+03  0.0000E+00  0.0000E+00  0.0000E+00  9.0000E+01  1.0000E+02  1.0000E+02  0.0000E+00  5.3323E+00
 ------------------------------------------------------------------------------------------------------------------------
       60  2.0601E+03  3.1121E+02  6.3179E+02 -6.3496E+02  0.0000E+00  4.5657E+02  7.0512E+02  1.0505E+02  0.0000E+00
      0.1  3.2946E+03  0.0000E+00 -8.4677E+02 -1.4338E+03  0.0000E+00  5.8704E+02  0.0000E+00  0.0000E+00  0.0000E+00
      0.3  3.9706E+03  0.0000E+00  0.0000E+00  0.0000E+00  9.0000E+01  1.0000E+02  1.0000E+02  0.0000E+00  5.0952E+00

  rolling  2.0567E+03  3.2972E+02  5.4343E+02 -5.6847E+02  0.0000E+00  4.3893E+02  5.8194E+02  9.1031E+01  0.0000E+00
 averages  3.3477E+03  0.0000E+00 -8.4634E+02 -2.5082E+03  0.0000E+00  1.6619E+03  0.0000E+00  0.0000E+00  0.0000E+00
           3.9706E+03  0.0000E+00  0.0000E+00  0.0000E+00  9.0000E+01  1.0000E+02  1.0000E+02  0.0000E+00  5.3284E+00
 ------------------------------------------------------------------------------------------------------------------------
       61  2.0658E+03  3.0188E+02  6.8026E+02 -6.3384E+02  0.0000E+00  5.0693E+02  7.0132E+02  1.0584E+02  0.0000E+00
      0.1  2.6164E+03  0.0000E+00  1.1192E+03 -1.4511E+03  0.0000E+00  2.5703E+03  0.0000E+00  0.0000E+00  0.0000E+00
      0.3  3.9706E+03  0.0000E+00  0.0000E+00  0.0000E+00  9.0000E+01  1.0000E+02  1.0000E+02  0.0000E+00  2.2726E+00

  rolling  2.0569E+03  3.2926E+02  5.4567E+02 -5.6955E+02  0.0000E+00  4.4004E+02  5.8390E+02  9.1273E+01  0.0000E+00
 averages  3.3357E+03  0.0000E+00 -8.1412E+02 -2.4909E+03  0.0000E+00  1.6768E+03  0.0000E+00  0.0000E+00  0.0000E+00
           3.9706E+03  0.0000E+00  0.0000E+00  0.0000E+00  9.0000E+01  1.0000E+02  1.0000E+02  0.0000E+00  5.2783E+00
 ------------------------------------------------------------------------------------------------------------------------
       62  2.0595E+03  3.1743E+02  6.0264E+02 -6.3378E+02  0.0000E+00  4.5103E+02  6.7906E+02  1.0634E+02  0.0000E+00
      0.1  2.2562E+03  0.0000E+00  2.3236E+03 -1.4548E+03  0.0000E+00  3.7784E+03  0.0000E+00  0.0000E+00  0.0000E+00
      0.3  3.9706E+03  0.0000E+00  0.0000E+00  0.0000E+00  9.0000E+01  1.0000E+02  1.0000E+02  0.0000E+00  8.1194E-01

  rolling  2.0569E+03  3.2907E+02  5.4659E+02 -5.7058E+02  0.0000E+00  4.4022E+02  5.8544E+02  9.1516E+01  0.0000E+00
 averages  3.3183E+03  0.0000E+00 -7.6351E+02 -2.4742E+03  0.0000E+00  1.7107E+03  0.0000E+00  0.0000E+00  0.0000E+00
           3.9706E+03  0.0000E+00  0.0000E+00  0.0000E+00  9.0000E+01  1.0000E+02  1.0000E+02  0.0000E+00  5.2063E+00
 ------------------------------------------------------------------------------------------------------------------------
       63  2.0502E+03  3.4042E+02  4.8780E+02 -6.3502E+02  0.0000E+00  3.7190E+02  6.4430E+02  1.0662E+02  0.0000E+00
      0.1  2.2654E+03  0.0000E+00  2.4792E+03 -1.4395E+03  0.0000E+00  3.9188E+03  0.0000E+00  0.0000E+00  0.0000E+00
      0.3  3.9706E+03  0.0000E+00  0.0000E+00  0.0000E+00  9.0000E+01  1.0000E+02  1.0000E+02  0.0000E+00  8.8819E-01

  rolling  2.0568E+03  3.2925E+02  5.4566E+02 -5.7160E+02  0.0000E+00  4.3914E+02  5.8637E+02  9.1756E+01  0.0000E+00
 averages  3.3016E+03  0.0000E+00 -7.1204E+02 -2.4578E+03  0.0000E+00  1.7457E+03  0.0000E+00  0.0000E+00  0.0000E+00
           3.9706E+03  0.0000E+00  0.0000E+00  0.0000E+00  9.0000E+01  1.0000E+02  1.0000E+02  0.0000E+00  5.1377E+00
 ------------------------------------------------------------------------------------------------------------------------
       64  2.0518E+03  3.4488E+02  4.6896E+02 -6.3738E+02  0.0000E+00  3.9487E+02  6.0470E+02  1.0678E+02  0.0000E+00
      0.1  2.4956E+03  0.0000E+00  1.8344E+03 -1.4085E+03  0.0000E+00  3.2429E+03  0.0000E+00  0.0000E+00  0.0000E+00
      0.3  3.9706E+03  0.0000E+00  0.0000E+00  0.0000E+00  9.0000E+01  1.0000E+02  1.0000E+02  0.0000E+00  1.8316E+00

  rolling  2.0567E+03  3.2950E+02  5.4446E+02 -5.7263E+02  0.0000E+00  4.3844E+02  5.8666E+02  9.1991E+01  0.0000E+00
 averages  3.2890E+03  0.0000E+00 -6.7225E+02 -2.4414E+03  0.0000E+00  1.7691E+03  0.0000E+00  0.0000E+00  0.0000E+00
           3.9706E+03  0.0000E+00  0.0000E+00  0.0000E+00  9.0000E+01  1.0000E+02  1.0000E+02  0.0000E+00  5.0861E+00
 ------------------------------------------------------------------------------------------------------------------------
 ------------------------------------------------------------------------------------------------------------------------

     step     eng_tot    temp_tot     eng_cfg     eng_vdw     eng_cou     eng_bnd     eng_ang     eng_dih     eng_tet
 time(ps)      eng_pv    temp_rot     vir_cfg     vir_vdw     vir_cou     vir_bnd     vir_ang     vir_con     vir_tet
 cpu  (s)      volume    temp_shl     eng_shl     vir_shl       alpha        beta       gamma     vir_pmf       press

 ------------------------------------------------------------------------------------------------------------------------
       65  2.0612E+03  3.3502E+02  5.2364E+02 -6.3968E+02  0.0000E+00  4.8868E+02  5.6781E+02  1.0684E+02  0.0000E+00
      0.1  2.8490E+03  0.0000E+00  7.1181E+02 -1.3756E+03  0.0000E+00  2.0874E+03  0.0000E+00  0.0000E+00  0.0000E+00
      0.3  3.9706E+03  0.0000E+00  0.0000E+00  0.0000E+00  9.0000E+01  1.0000E+02  1.0000E+02  0.0000E+00  3.2516E+00

  rolling  2.0568E+03  3.2958E+02  5.4414E+02 -5.7366E+02  0.0000E+00  4.3922E+02  5.8637E+02  9.2219E+01  0.0000E+00
 averages  3.2822E+03  0.0000E+00 -6.5096E+02 -2.4250E+03  0.0000E+00  1.7740E+03  0.0000E+00  0.0000E+00  0.0000E+00
           3.9706E+03  0.0000E+00  0.0000E+00  0.0000E+00  9.0000E+01  1.0000E+02  1.0000E+02  0.0000E+00  5.0578E+00
 ------------------------------------------------------------------------------------------------------------------------
       66  2.0628E+03  3.3638E+02  5.1898E+02 -6.4077E+02  0.0000E+00  5.1274E+02  5.4024E+02  1.0678E+02  0.0000E+00
      0.1  3.2951E+03  0.0000E+00 -6.0914E+02 -1.3581E+03  0.0000E+00  7.4901E+02  0.0000E+00  0.0000E+00  0.0000E+00
      0.3  3.9706E+03  0.0000E+00  0.0000E+00  0.0000E+00  9.0000E+01  1.0000E+02  1.0000E+02  0.0000E+00  5.0862E+00

  rolling  2.0569E+03  3.2968E+02  5.4376E+02 -5.7468E+02  0.0000E+00  4.4033E+02  5.8567E+02  9.2440E+01  0.0000E+00
 averages  3.2824E+03  0.0000E+00 -6.5033E+02 -2.4088E+03  0.0000E+00  1.7585E+03  0.0000E+00  0.0000E+00  0.0000E+00
           3.9706E+03  0.0000E+00  0.0000E+00  0.0000E+00  9.0000E+01  1.0000E+02  1.0000E+02  0.0000E+00  5.0583E+00
 ------------------------------------------------------------------------------------------------------------------------
       67  2.0543E+03  3.5383E+02  4.3039E+02 -6.3903E+02  0.0000E+00  4.3592E+02  5.2694E+02  1.0656E+02  0.0000E+00
      0.1  3.7107E+03  0.0000E+00 -1.7211E+03 -1.3763E+03  0.0000E+00 -3.4480E+02  0.0000E+00  0.0000E+00  0.0000E+00
      0.3  3.9706E+03  0.0000E+00  0.0000E+00  0.0000E+00  9.0000E+01  1.0000E+02  1.0000E+02  0.0000E+00  6.8364E+00

  rolling  2.0568E+03  3.3004E+02  5.4207E+02 -5.7564E+02  0.0000E+00  4.4027E+02  5.8479E+02  9.2650E+01  0.0000E+00
 averages  3.2888E+03  0.0000E+00 -6.6631E+02 -2.3934E+03  0.0000E+00  1.7271E+03  0.0000E+00  0.0000E+00  0.0000E+00
           3.9706E+03  0.0000E+00  0.0000E+00  0.0000E+00  9.0000E+01  1.0000E+02  1.0000E+02  0.0000E+00  5.0848E+00
 ------------------------------------------------------------------------------------------------------------------------
       68  2.0493E+03  3.6420E+02  3.7775E+02 -6.3413E+02  0.0000E+00  3.7588E+02  5.2986E+02  1.0614E+02  0.0000E+00
      0.1  3.8914E+03  0.0000E+00 -2.1833E+03 -1.4375E+03  0.0000E+00 -7.4573E+02  0.0000E+00  0.0000E+00  0.0000E+00
      0.3  3.9706E+03  0.0000E+00  0.0000E+00  0.0000E+00  9.0000E+01  1.0000E+02  1.0000E+02  0.0000E+00  7.6032E+00

  rolling  2.0567E+03  3.3055E+02  5.3965E+02 -5.7650E+02  0.0000E+00  4.3932E+02  5.8398E+02  9.2849E+01  0.0000E+00
 averages  3.2977E+03  0.0000E+00 -6.8862E+02 -2.3793E+03  0.0000E+00  1.6907E+03  0.0000E+00  0.0000E+00  0.0000E+00
           3.9706E+03  0.0000E+00  0.0000E+00  0.0000E+00  9.0000E+01  1.0000E+02  1.0000E+02  0.0000E+00  5.1218E+00
 ------------------------------------------------------------------------------------------------------------------------
       69  2.0553E+03  3.5362E+02  4.3231E+02 -6.2619E+02  0.0000E+00  4.0617E+02  5.4679E+02  1.0554E+02  0.0000E+00
      0.1  3.7853E+03  0.0000E+00 -1.9440E+03 -1.5395E+03  0.0000E+00 -4.0455E+02  0.0000E+00  0.0000E+00  0.0000E+00
      0.3  3.9706E+03  0.0000E+00  0.0000E+00  0.0000E+00  9.0000E+01  1.0000E+02  1.0000E+02  0.0000E+00  7.1405E+00

  rolling  2.0567E+03  3.3088E+02  5.3809E+02 -5.7722E+02  0.0000E+00  4.3884E+02  5.8344E+02  9.3033E+01  0.0000E+00
 averages  3.3047E+03  0.0000E+00 -7.0681E+02 -2.3672E+03  0.0000E+00  1.6604E+03  0.0000E+00  0.0000E+00  0.0000E+00
           3.9706E+03  0.0000E+00  0.0000E+00  0.0000E+00  9.0000E+01  1.0000E+02  1.0000E+02  0.0000E+00  5.1511E+00
 ------------------------------------------------------------------------------------------------------------------------
       70  2.0619E+03  3.3793E+02  5.1096E+02 -6.1709E+02  0.0000E+00  4.5140E+02  5.7180E+02  1.0485E+02  0.0000E+00
      0.1  3.5703E+03  0.0000E+00 -1.4231E+03 -1.6603E+03  0.0000E+00  2.3718E+02  0.0000E+00  0.0000E+00  0.0000E+00
      0.3  3.9706E+03  0.0000E+00  0.0000E+00  0.0000E+00  9.0000E+01  1.0000E+02  1.0000E+02  0.0000E+00  6.2256E+00

  rolling  2.0568E+03  3.3098E+02  5.3771E+02 -5.7779E+02  0.0000E+00  4.3902E+02  5.8328E+02  9.3202E+01  0.0000E+00
 averages  3.3085E+03  0.0000E+00 -7.1704E+02 -2.3571E+03  0.0000E+00  1.6400E+03  0.0000E+00  0.0000E+00  0.0000E+00
           3.9706E+03  0.0000E+00  0.0000E+00  0.0000E+00  9.0000E+01  1.0000E+02  1.0000E+02  0.0000E+00  5.1664E+00
 ------------------------------------------------------------------------------------------------------------------------
       71  2.0593E+03  3.3545E+02  5.1971E+02 -6.0944E+02  0.0000E+00  4.2772E+02  5.9728E+02  1.0414E+02  0.0000E+00
      0.1  3.4341E+03  0.0000E+00 -1.0453E+03 -1.7655E+03  0.0000E+00  7.2018E+02  0.0000E+00  0.0000E+00  0.0000E+00
      0.3  3.9706E+03  0.0000E+00  0.0000E+00  0.0000E+00  9.0000E+01  1.0000E+02  1.0000E+02  0.0000E+00  5.6745E+00

  rolling  2.0568E+03  3.3104E+02  5.3745E+02 -5.7824E+02  0.0000E+00  4.3886E+02  5.8348E+02  9.3356E+01  0.0000E+00
 averages  3.3103E+03  0.0000E+00 -7.2167E+02 -2.3487E+03  0.0000E+00  1.6271E+03  0.0000E+00  0.0000E+00  0.0000E+00
           3.9706E+03  0.0000E+00  0.0000E+00  0.0000E+00  9.0000E+01  1.0000E+02  1.0000E+02  0.0000E+00  5.1736E+00
 ------------------------------------------------------------------------------------------------------------------------
       72  2.0537E+03  3.4000E+02  4.9326E+02 -6.0539E+02  0.0000E+00  3.7859E+02  6.1660E+02  1.0346E+02  0.0000E+00
      0.1  3.3698E+03  0.0000E+00 -8.2735E+02 -1.8249E+03  0.0000E+00  9.9759E+02  0.0000E+00  0.0000E+00  0.0000E+00
      0.4  3.9706E+03  0.0000E+00  0.0000E+00  0.0000E+00  9.0000E+01  1.0000E+02  1.0000E+02  0.0000E+00  5.4321E+00

  rolling  2.0568E+03  3.3117E+02  5.3684E+02 -5.7861E+02  0.0000E+00  4.3802E+02  5.8394E+02  9.3496E+01  0.0000E+00
 averages  3.3111E+03  0.0000E+00 -7.2314E+02 -2.3415E+03  0.0000E+00  1.6183E+03  0.0000E+00  0.0000E+00  0.0000E+00
           3.9706E+03  0.0000E+00  0.0000E+00  0.0000E+00  9.0000E+01  1.0000E+02  1.0000E+02  0.0000E+00  5.1772E+00
 ------------------------------------------------------------------------------------------------------------------------
 ------------------------------------------------------------------------------------------------------------------------

     step     eng_tot    temp_tot     eng_cfg     eng_vdw     eng_cou     eng_bnd     eng_ang     eng_dih     eng_tet
 time(ps)      eng_pv    temp_rot     vir_cfg     vir_vdw     vir_cou     vir_bnd     vir_ang     vir_con     vir_tet
 cpu  (s)      volume    temp_shl     eng_shl     vir_shl       alpha        beta       gamma     vir_pmf       press

 ------------------------------------------------------------------------------------------------------------------------
       73  2.0556E+03  3.3700E+02  5.0886E+02 -6.0539E+02  0.0000E+00  3.8540E+02  6.2607E+02  1.0277E+02  0.0000E+00
      0.1  3.2643E+03  0.0000E+00 -5.3275E+02 -1.8299E+03  0.0000E+00  1.2972E+03  0.0000E+00  0.0000E+00  0.0000E+00
      0.4  3.9706E+03  0.0000E+00  0.0000E+00  0.0000E+00  9.0000E+01  1.0000E+02  1.0000E+02  0.0000E+00  4.9889E+00

  rolling  2.0568E+03  3.3125E+02  5.3646E+02 -5.7898E+02  0.0000E+00  4.3730E+02  5.8451E+02  9.3623E+01  0.0000E+00
 averages  3.3105E+03  0.0000E+00 -7.2053E+02 -2.3345E+03  0.0000E+00  1.6139E+03  0.0000E+00  0.0000E+00  0.0000E+00
           3.9706E+03  0.0000E+00  0.0000E+00  0.0000E+00  9.0000E+01  1.0000E+02  1.0000E+02  0.0000E+00  5.1746E+00
 ------------------------------------------------------------------------------------------------------------------------
       74  2.0608E+03  3.3060E+02  5.4348E+02 -6.0891E+02  0.0000E+00  4.2492E+02  6.2544E+02  1.0203E+02  0.0000E+00
      0.1  3.0866E+03  0.0000E+00 -4.2799E+01 -1.7870E+03  0.0000E+00  1.7442E+03  0.0000E+00  0.0000E+00  0.0000E+00
      0.4  3.9706E+03  0.0000E+00  0.0000E+00  0.0000E+00  9.0000E+01  1.0000E+02  1.0000E+02  0.0000E+00  4.2340E+00

  rolling  2.0568E+03  3.3124E+02  5.3655E+02 -5.7939E+02  0.0000E+00  4.3713E+02  5.8507E+02  9.3737E+01  0.0000E+00
 averages  3.3074E+03  0.0000E+00 -7.1137E+02 -2.3271E+03  0.0000E+00  1.6157E+03  0.0000E+00  0.0000E+00  0.0000E+00
           3.9706E+03  0.0000E+00  0.0000E+00  0.0000E+00  9.0000E+01  1.0000E+02  1.0000E+02  0.0000E+00  5.1619E+00
 ------------------------------------------------------------------------------------------------------------------------
       75  2.0594E+03  3.3434E+02  5.2495E+02 -6.1422E+02  0.0000E+00  4.2111E+02  6.1685E+02  1.0121E+02  0.0000E+00
      0.1  2.8862E+03  0.0000E+00  5.8859E+02 -1.7170E+03  0.0000E+00  2.3056E+03  0.0000E+00  0.0000E+00  0.0000E+00
      0.4  3.9706E+03  0.0000E+00  0.0000E+00  0.0000E+00  9.0000E+01  1.0000E+02  1.0000E+02  0.0000E+00  3.4126E+00

  rolling  2.0568E+03  3.3128E+02  5.3640E+02 -5.7985E+02  0.0000E+00  4.3692E+02  5.8549E+02  9.3836E+01  0.0000E+00
 averages  3.3018E+03  0.0000E+00 -6.9404E+02 -2.3189E+03  0.0000E+00  1.6249E+03  0.0000E+00  0.0000E+00  0.0000E+00
           3.9706E+03  0.0000E+00  0.0000E+00  0.0000E+00  9.0000E+01  1.0000E+02  1.0000E+02  0.0000E+00  5.1386E+00
 ------------------------------------------------------------------------------------------------------------------------
       76  2.0536E+03  3.4473E+02  4.7138E+02 -6.1941E+02  0.0000E+00  3.8676E+02  6.0366E+02  1.0037E+02  0.0000E+00
      0.1  2.6737E+03  0.0000E+00  1.3040E+03 -1.6431E+03  0.0000E+00  2.9470E+03  0.0000E+00  0.0000E+00  0.0000E+00
      0.4  3.9706E+03  0.0000E+00  0.0000E+00  0.0000E+00  9.0000E+01  1.0000E+02  1.0000E+02  0.0000E+00  2.5596E+00

  rolling  2.0568E+03  3.3146E+02  5.3554E+02 -5.8037E+02  0.0000E+00  4.3626E+02  5.8573E+02  9.3922E+01  0.0000E+00
 averages  3.2936E+03  0.0000E+00 -6.6775E+02 -2.3100E+03  0.0000E+00  1.6423E+03  0.0000E+00  0.0000E+00  0.0000E+00
           3.9706E+03  0.0000E+00  0.0000E+00  0.0000E+00  9.0000E+01  1.0000E+02  1.0000E+02  0.0000E+00  5.1046E+00
[...]
      0.4  3.9706E+03  0.0000E+00  0.0000E+00  0.0000E+00  9.0000E+01  1.0000E+02  1.0000E+02  0.0000E+00  4.3857E+00

  rolling  2.0569E+03  3.3246E+02  5.3101E+02 -5.8563E+02  0.0000E+00  4.3536E+02  5.8696E+02  9.4319E+01  0.0000E+00
 averages  3.2561E+03  0.0000E+00 -5.4596E+02 -2.2219E+03  0.0000E+00  1.6759E+03  0.0000E+00  0.0000E+00  0.0000E+00
           3.9706E+03  0.0000E+00  0.0000E+00  0.0000E+00  9.0000E+01  1.0000E+02  1.0000E+02  0.0000E+00  4.9497E+00
 ------------------------------------------------------------------------------------------------------------------------
       85  2.0516E+03  3.4669E+02  4.6040E+02 -6.4443E+02  0.0000E+00  3.6289E+02  6.4651E+02  9.5440E+01  0.0000E+00
      0.1  2.6672E+03  0.0000E+00  1.3356E+03 -1.2435E+03  0.0000E+00  2.5792E+03  0.0000E+00  0.0000E+00  0.0000E+00
      0.4  3.9706E+03  0.0000E+00  0.0000E+00  0.0000E+00  9.0000E+01  1.0000E+02  1.0000E+02  0.0000E+00  2.5408E+00

  rolling  2.0568E+03  3.3262E+02  5.3018E+02 -5.8632E+02  0.0000E+00  4.3451E+02  5.8766E+02  9.4332E+01  0.0000E+00
 averages  3.2491E+03  0.0000E+00 -5.2382E+02 -2.2104E+03  0.0000E+00  1.6865E+03  0.0000E+00  0.0000E+00  0.0000E+00
           3.9706E+03  0.0000E+00  0.0000E+00  0.0000E+00  9.0000E+01  1.0000E+02  1.0000E+02  0.0000E+00  4.9213E+00
 ------------------------------------------------------------------------------------------------------------------------
       86  2.0538E+03  3.4512E+02  4.6983E+02 -6.4547E+02  0.0000E+00  3.8083E+02  6.4003E+02  9.4444E+01  0.0000E+00
      0.1  2.0914E+03  0.0000E+00  3.0553E+03 -1.2267E+03  0.0000E+00  4.2819E+03  0.0000E+00  0.0000E+00  0.0000E+00
      0.4  3.9706E+03  0.0000E+00  0.0000E+00  0.0000E+00  9.0000E+01  1.0000E+02  1.0000E+02  0.0000E+00  1.5503E-01

  rolling  2.0568E+03  3.3277E+02  5.2948E+02 -5.8701E+02  0.0000E+00  4.3389E+02  5.8827E+02  9.4333E+01  0.0000E+00
 averages  3.2357E+03  0.0000E+00 -4.8221E+02 -2.1989E+03  0.0000E+00  1.7167E+03  0.0000E+00  0.0000E+00  0.0000E+00
           3.9706E+03  0.0000E+00  0.0000E+00  0.0000E+00  9.0000E+01  1.0000E+02  1.0000E+02  0.0000E+00  4.8659E+00
 ------------------------------------------------------------------------------------------------------------------------
       87  2.0617E+03  3.3628E+02  5.1833E+02 -6.4692E+02  0.0000E+00  4.4933E+02  6.2254E+02  9.3377E+01  0.0000E+00
      0.1  1.6564E+03  0.0000E+00  4.3028E+03 -1.2032E+03  0.0000E+00  5.5060E+03  0.0000E+00  0.0000E+00  0.0000E+00
      0.4  3.9706E+03  0.0000E+00  0.0000E+00  0.0000E+00  9.0000E+01  1.0000E+02  1.0000E+02  0.0000E+00 -1.6730E+00

  rolling  2.0568E+03  3.3281E+02  5.2935E+02 -5.8770E+02  0.0000E+00  4.3406E+02  5.8866E+02  9.4322E+01  0.0000E+00
 averages  3.2175E+03  0.0000E+00 -4.2721E+02 -2.1875E+03  0.0000E+00  1.7603E+03  0.0000E+00  0.0000E+00  0.0000E+00
           3.9706E+03  0.0000E+00  0.0000E+00  0.0000E+00  9.0000E+01  1.0000E+02  1.0000E+02  0.0000E+00  4.7908E+00
 ------------------------------------------------------------------------------------------------------------------------
       88  2.0617E+03  3.4146E+02  4.9454E+02 -6.4794E+02  0.0000E+00  4.5274E+02  5.9743E+02  9.2320E+01  0.0000E+00
      0.1  1.6478E+03  0.0000E+00  4.3760E+03 -1.1854E+03  0.0000E+00  5.5615E+03  0.0000E+00  0.0000E+00  0.0000E+00
      0.4  3.9706E+03  0.0000E+00  0.0000E+00  0.0000E+00  9.0000E+01  1.0000E+02  1.0000E+02  0.0000E+00 -1.7084E+00

  rolling  2.0569E+03  3.3291E+02  5.2895E+02 -5.8839E+02  0.0000E+00  4.3428E+02  5.8876E+02  9.4299E+01  0.0000E+00
 averages  3.1997E+03  0.0000E+00 -3.7262E+02 -2.1761E+03  0.0000E+00  1.8035E+03  0.0000E+00  0.0000E+00  0.0000E+00
           3.9706E+03  0.0000E+00  0.0000E+00  0.0000E+00  9.0000E+01  1.0000E+02  1.0000E+02  0.0000E+00  4.7169E+00
 ------------------------------------------------------------------------------------------------------------------------
 ------------------------------------------------------------------------------------------------------------------------

     step     eng_tot    temp_tot     eng_cfg     eng_vdw     eng_cou     eng_bnd     eng_ang     eng_dih     eng_tet
 time(ps)      eng_pv    temp_rot     vir_cfg     vir_vdw     vir_cou     vir_bnd     vir_ang     vir_con     vir_tet
 cpu  (s)      volume    temp_shl     eng_shl     vir_shl       alpha        beta       gamma     vir_pmf       press

 ------------------------------------------------------------------------------------------------------------------------
       89  2.0536E+03  3.6048E+02  3.9914E+02 -6.4735E+02  0.0000E+00  3.8441E+02  5.7068E+02  9.1402E+01  0.0000E+00
      0.1  2.0837E+03  0.0000E+00  3.2186E+03 -1.1872E+03  0.0000E+00  4.4059E+03  0.0000E+00  0.0000E+00  0.0000E+00
      0.4  3.9706E+03  0.0000E+00  0.0000E+00  0.0000E+00  9.0000E+01  1.0000E+02  1.0000E+02  0.0000E+00  1.2426E-01

  rolling  2.0568E+03  3.3322E+02  5.2750E+02 -5.8905E+02  0.0000E+00  4.3371E+02  5.8856E+02  9.4267E+01  0.0000E+00
 averages  3.1871E+03  0.0000E+00 -3.3227E+02 -2.1650E+03  0.0000E+00  1.8327E+03  0.0000E+00  0.0000E+00  0.0000E+00
           3.9706E+03  0.0000E+00  0.0000E+00  0.0000E+00  9.0000E+01  1.0000E+02  1.0000E+02  0.0000E+00  4.6653E+00
 ------------------------------------------------------------------------------------------------------------------------
       90  2.0505E+03  3.7066E+02  3.4927E+02 -6.4625E+02  0.0000E+00  3.5552E+02  5.4922E+02  9.0780E+01  0.0000E+00
      0.1  2.6874E+03  0.0000E+00  1.4917E+03 -1.1973E+03  0.0000E+00  2.6890E+03  0.0000E+00  0.0000E+00  0.0000E+00
      0.4  3.9706E+03  0.0000E+00  0.0000E+00  0.0000E+00  9.0000E+01  1.0000E+02  1.0000E+02  0.0000E+00  2.6287E+00

  rolling  2.0568E+03  3.3363E+02  5.2551E+02 -5.8968E+02  0.0000E+00  4.3285E+02  5.8812E+02  9.4228E+01  0.0000E+00
 averages  3.1816E+03  0.0000E+00 -3.1201E+02 -2.1542E+03  0.0000E+00  1.8422E+03  0.0000E+00  0.0000E+00  0.0000E+00
           3.9706E+03  0.0000E+00  0.0000E+00  0.0000E+00  9.0000E+01  1.0000E+02  1.0000E+02  0.0000E+00  4.6427E+00
 ------------------------------------------------------------------------------------------------------------------------
       91  2.0566E+03  3.6253E+02  3.9274E+02 -6.4652E+02  0.0000E+00  4.1034E+02  5.3833E+02  9.0586E+01  0.0000E+00
      0.1  3.1614E+03  0.0000E+00  1.3345E+01 -1.1938E+03  0.0000E+00  1.2072E+03  0.0000E+00  0.0000E+00  0.0000E+00
      0.4  3.9706E+03  0.0000E+00  0.0000E+00  0.0000E+00  9.0000E+01  1.0000E+02  1.0000E+02  0.0000E+00  4.5600E+00

  rolling  2.0568E+03  3.3395E+02  5.2406E+02 -5.9031E+02  0.0000E+00  4.3260E+02  5.8758E+02  9.4188E+01  0.0000E+00
 averages  3.1814E+03  0.0000E+00 -3.0843E+02 -2.1437E+03  0.0000E+00  1.8352E+03  0.0000E+00  0.0000E+00  0.0000E+00
           3.9706E+03  0.0000E+00  0.0000E+00  0.0000E+00  9.0000E+01  1.0000E+02  1.0000E+02  0.0000E+00  4.6418E+00
 ------------------------------------------------------------------------------------------------------------------------
       92  2.0614E+03  3.5273E+02  4.4251E+02 -6.4745E+02  0.0000E+00  4.5956E+02  5.3956E+02  9.0842E+01  0.0000E+00
      0.1  3.3794E+03  0.0000E+00 -7.1616E+02 -1.1824E+03  0.0000E+00  4.6629E+02  0.0000E+00  0.0000E+00  0.0000E+00
      0.4  3.9706E+03  0.0000E+00  0.0000E+00  0.0000E+00  9.0000E+01  1.0000E+02  1.0000E+02  0.0000E+00  5.4399E+00

  rolling  2.0568E+03  3.3416E+02  5.2317E+02 -5.9093E+02  0.0000E+00  4.3289E+02  5.8705E+02  9.4152E+01  0.0000E+00
 averages  3.1835E+03  0.0000E+00 -3.1286E+02 -2.1332E+03  0.0000E+00  1.8204E+03  0.0000E+00  0.0000E+00  0.0000E+00
           3.9706E+03  0.0000E+00  0.0000E+00  0.0000E+00  9.0000E+01  1.0000E+02  1.0000E+02  0.0000E+00  4.6504E+00
 ------------------------------------------------------------------------------------------------------------------------
       93  2.0568E+03  3.5419E+02  4.3123E+02 -6.4789E+02  0.0000E+00  4.3717E+02  5.5052E+02  9.1433E+01  0.0000E+00
      0.1  3.3028E+03  0.0000E+00 -4.8681E+02 -1.1789E+03  0.0000E+00  6.9211E+02  0.0000E+00  0.0000E+00  0.0000E+00
      0.4  3.9706E+03  0.0000E+00  0.0000E+00  0.0000E+00  9.0000E+01  1.0000E+02  1.0000E+02  0.0000E+00  5.1427E+00

  rolling  2.0568E+03  3.3437E+02  5.2218E+02 -5.9154E+02  0.0000E+00  4.3294E+02  5.8666E+02  9.4122E+01  0.0000E+00
 averages  3.1848E+03  0.0000E+00 -3.1473E+02 -2.1230E+03  0.0000E+00  1.8082E+03  0.0000E+00  0.0000E+00  0.0000E+00
           3.9706E+03  0.0000E+00  0.0000E+00  0.0000E+00  9.0000E+01  1.0000E+02  1.0000E+02  0.0000E+00  4.6557E+00
 ------------------------------------------------------------------------------------------------------------------------
       94  2.0516E+03  3.5539E+02  4.2051E+02 -6.4727E+02  0.0000E+00  4.0927E+02  5.6636E+02  9.2155E+01  0.0000E+00
      0.1  2.9061E+03  0.0000E+00  6.9861E+02 -1.1882E+03  0.0000E+00  1.8868E+03  0.0000E+00  0.0000E+00  0.0000E+00
      0.4  3.9706E+03  0.0000E+00  0.0000E+00  0.0000E+00  9.0000E+01  1.0000E+02  1.0000E+02  0.0000E+00  3.5270E+00

  rolling  2.0568E+03  3.3459E+02  5.2110E+02 -5.9213E+02  0.0000E+00  4.3269E+02  5.8645E+02  9.4101E+01  0.0000E+00
 averages  3.1818E+03  0.0000E+00 -3.0395E+02 -2.1130E+03  0.0000E+00  1.8091E+03  0.0000E+00  0.0000E+00  0.0000E+00
           3.9706E+03  0.0000E+00  0.0000E+00  0.0000E+00  9.0000E+01  1.0000E+02  1.0000E+02  0.0000E+00  4.6437E+00
 ------------------------------------------------------------------------------------------------------------------------
       95  2.0554E+03  3.4295E+02  4.8141E+02 -6.4634E+02  0.0000E+00  4.5296E+02  5.8198E+02  9.2818E+01  0.0000E+00
      0.1  2.2895E+03  0.0000E+00  2.4459E+03 -1.2003E+03  0.0000E+00  3.6462E+03  0.0000E+00  0.0000E+00  0.0000E+00
      0.4  3.9706E+03  0.0000E+00  0.0000E+00  0.0000E+00  9.0000E+01  1.0000E+02  1.0000E+02  0.0000E+00  9.6606E-01

  rolling  2.0567E+03  3.3468E+02  5.2068E+02 -5.9270E+02  0.0000E+00  4.3290E+02  5.8640E+02  9.4088E+01  0.0000E+00
 averages  3.1725E+03  0.0000E+00 -2.7501E+02 -2.1034E+03  0.0000E+00  1.8284E+03  0.0000E+00  0.0000E+00  0.0000E+00
           3.9706E+03  0.0000E+00  0.0000E+00  0.0000E+00  9.0000E+01  1.0000E+02  1.0000E+02  0.0000E+00  4.6050E+00
 ------------------------------------------------------------------------------------------------------------------------
       96  2.0623E+03  3.2744E+02  5.5952E+02 -6.4602E+02  0.0000E+00  5.1848E+02  5.9377E+02  9.3293E+01  0.0000E+00
      0.1  1.7540E+03  0.0000E+00  3.9306E+03 -1.2038E+03  0.0000E+00  5.1344E+03  0.0000E+00  0.0000E+00  0.0000E+00
      0.4  3.9706E+03  0.0000E+00  0.0000E+00  0.0000E+00  9.0000E+01  1.0000E+02  1.0000E+02  0.0000E+00 -1.2726E+00

  rolling  2.0568E+03  3.3461E+02  5.2109E+02 -5.9326E+02  0.0000E+00  4.3379E+02  5.8648E+02  9.4080E+01  0.0000E+00
 averages  3.1577E+03  0.0000E+00 -2.3120E+02 -2.0940E+03  0.0000E+00  1.8628E+03  0.0000E+00  0.0000E+00  0.0000E+00
           3.9706E+03  0.0000E+00  0.0000E+00  0.0000E+00  9.0000E+01  1.0000E+02  1.0000E+02  0.0000E+00  4.5438E+00
 ------------------------------------------------------------------------------------------------------------------------
 ------------------------------------------------------------------------------------------------------------------------

     step     eng_tot    temp_tot     eng_cfg     eng_vdw     eng_cou     eng_bnd     eng_ang     eng_dih     eng_tet
 time(ps)      eng_pv    temp_rot     vir_cfg     vir_vdw     vir_cou     vir_bnd     vir_ang     vir_con     vir_tet
 cpu  (s)      volume    temp_shl     eng_shl     vir_shl       alpha        beta       gamma     vir_pmf       press

 ------------------------------------------------------------------------------------------------------------------------
       97  2.0609E+03  3.2737E+02  5.5843E+02 -6.4668E+02  0.0000E+00  5.1147E+02  6.0011E+02  9.3535E+01  0.0000E+00
      0.1  1.6035E+03  0.0000E+00  4.3773E+03 -1.1936E+03  0.0000E+00  5.5709E+03  0.0000E+00  0.0000E+00  0.0000E+00
      0.5  3.9706E+03  0.0000E+00  0.0000E+00  0.0000E+00  9.0000E+01  1.0000E+02  1.0000E+02  0.0000E+00 -1.8880E+00

  rolling  2.0568E+03  3.3453E+02  5.2147E+02 -5.9381E+02  0.0000E+00  4.3459E+02  5.8662E+02  9.4074E+01  0.0000E+00
 averages  3.1417E+03  0.0000E+00 -1.8369E+02 -2.0848E+03  0.0000E+00  1.9011E+03  0.0000E+00  0.0000E+00  0.0000E+00
           3.9706E+03  0.0000E+00  0.0000E+00  0.0000E+00  9.0000E+01  1.0000E+02  1.0000E+02  0.0000E+00  4.4775E+00
 ------------------------------------------------------------------------------------------------------------------------
       98  2.0540E+03  3.3906E+02  4.9788E+02 -6.4815E+02  0.0000E+00  4.5159E+02  6.0088E+02  9.3563E+01  0.0000E+00
      0.1  1.8828E+03  0.0000E+00  3.6260E+03 -1.1713E+03  0.0000E+00  4.7974E+03  0.0000E+00  0.0000E+00  0.0000E+00
      0.5  3.9706E+03  0.0000E+00  0.0000E+00  0.0000E+00  9.0000E+01  1.0000E+02  1.0000E+02  0.0000E+00 -7.0684E-01

  rolling  2.0568E+03  3.3458E+02  5.2123E+02 -5.9437E+02  0.0000E+00  4.3477E+02  5.8676E+02  9.4069E+01  0.0000E+00
 averages  3.1288E+03  0.0000E+00 -1.4481E+02 -2.0754E+03  0.0000E+00  1.9306E+03  0.0000E+00  0.0000E+00  0.0000E+00
           3.9706E+03  0.0000E+00  0.0000E+00  0.0000E+00  9.0000E+01  1.0000E+02  1.0000E+02  0.0000E+00  4.4246E+00
 ------------------------------------------------------------------------------------------------------------------------
       99  2.0535E+03  3.4379E+02  4.7561E+02 -6.4997E+02  0.0000E+00  4.3536E+02  5.9677E+02  9.3444E+01  0.0000E+00
      0.1  2.3956E+03  0.0000E+00  2.1292E+03 -1.1419E+03  0.0000E+00  3.2711E+03  0.0000E+00  0.0000E+00  0.0000E+00
      0.5  3.9706E+03  0.0000E+00  0.0000E+00  0.0000E+00  9.0000E+01  1.0000E+02  1.0000E+02  0.0000E+00  1.4123E+00

  rolling  2.0568E+03  3.3467E+02  5.2077E+02 -5.9493E+02  0.0000E+00  4.3477E+02  5.8686E+02  9.4063E+01  0.0000E+00
 averages  3.1214E+03  0.0000E+00 -1.2184E+02 -2.0660E+03  0.0000E+00  1.9442E+03  0.0000E+00  0.0000E+00  0.0000E+00
           3.9706E+03  0.0000E+00  0.0000E+00  0.0000E+00  9.0000E+01  1.0000E+02  1.0000E+02  0.0000E+00  4.3942E+00
 ------------------------------------------------------------------------------------------------------------------------
      100  2.0597E+03  3.3947E+02  5.0165E+02 -6.5198E+02  0.0000E+00  4.7131E+02  5.8907E+02  9.3253E+01  0.0000E+00
      0.1  2.9347E+03  0.0000E+00  4.9095E+02 -1.1080E+03  0.0000E+00  1.5990E+03  0.0000E+00  0.0000E+00  0.0000E+00
      0.5  3.9706E+03  0.0000E+00  0.0000E+00  0.0000E+00  9.0000E+01  1.0000E+02  1.0000E+02  0.0000E+00  3.6116E+00

  rolling  2.0568E+03  3.3472E+02  5.2058E+02 -5.9550E+02  0.0000E+00  4.3514E+02  5.8689E+02  9.4054E+01  0.0000E+00
 averages  3.1195E+03  0.0000E+00 -1.1572E+02 -2.0564E+03  0.0000E+00  1.9407E+03  0.0000E+00  0.0000E+00  0.0000E+00
           3.9706E+03  0.0000E+00  0.0000E+00  0.0000E+00  9.0000E+01  1.0000E+02  1.0000E+02  0.0000E+00  4.3863E+00
 ------------------------------------------------------------------------------------------------------------------------


 run terminating. elapsed cpu time =         0.465, job time = 100000000.000, close time =      1000.000



 run terminated after     100 steps. final averages calculated over     100 steps.


 ------------------------------------------------------------------------------------------------------------------------

     step     eng_tot    temp_tot     eng_cfg     eng_vdw     eng_cou     eng_bnd     eng_ang     eng_dih     eng_tet
 time(ps)      eng_pv    temp_rot     vir_cfg     vir_vdw     vir_cou     vir_bnd     vir_ang     vir_con     vir_tet
 cpu  (s)      volume    temp_shl     eng_shl     vir_shl       alpha        beta       gamma     vir_pmf       press

 ------------------------------------------------------------------------------------------------------------------------
      100  2.0568E+03  3.3472E+02  5.2058E+02 -5.9550E+02  0.0000E+00  4.3514E+02  5.8689E+02  9.4054E+01  0.0000E+00
    0.100  3.1195E+03  0.0000E+00 -1.1572E+02 -2.0564E+03  0.0000E+00  1.9407E+03  0.0000E+00  0.0000E+00  0.0000E+00
     0.51  3.9706E+03  0.0000E+00  0.0000E+00  0.0000E+00  9.0000E+01  1.0000E+02  1.0000E+02  0.0000E+00  4.3863E+00

  r.m.s.   4.7137E+00  1.6533E+01  7.8667E+01  5.5235E+01  0.0000E+00  5.0111E+01  4.6229E+01  6.5685E+00  0.0000E+00
 fluctn.   8.3072E+02  0.0000E+00  2.5465E+03  8.6465E+02  0.0000E+00  2.3205E+03  0.0000E+00  0.0000E+00  0.0000E+00
           1.0292E-12  0.0000E+00  0.0000E+00  0.0000E+00  2.0133E-14  1.2391E-14  3.7518E-14  0.0000E+00  3.4295E+00
 ------------------------------------------------------------------------------------------------------------------------


            Approximate 3D Diffusion  coefficients (10^-9 m^2 / s)

            atom        D 
            CT         0.0000E+00
            HC         0.0000E+00
            OH_a       0.0000E+00
            HO         0.0000E+00


                Average pressure tensor                                       r.m.s. fluctuations 

           4.4286E+00 -1.0074E+00  2.9034E-01                          4.4210E+00  3.7559E+00  1.9162E+00
          -1.0074E+00  4.6980E+00  3.0206E-01                          3.7559E+00  4.4572E+00  1.6108E+00
           2.9034E-01  3.0206E-01  4.0323E+00                          1.9162E+00  1.6108E+00  3.8769E+00

            trace/3.   4.3863E+00


 sample of final configuration

      i       x(i)        y(i)        z(i)       vx(i)       vy(i)       vz(i)       fx(i)       fy(i)       fz(i)


      1  1.7779E+00  1.4224E+00  5.2816E+00 -1.9716E+00 -1.7989E+00 -1.4623E+00 -7.7913E+03  1.8268E+03 -7.4341E+03
     20 -4.8238E+00 -2.8422E+00  2.6133E+00 -2.8247E+00 -8.4716E-02 -9.8279E+00  1.2966E+04 -1.3756E+04 -4.9382E+03
     39 -5.7248E+00  6.6069E+00 -3.5541E+00  1.4026E+01  3.5681E+01 -2.3613E+01  4.0278E+03 -2.9733E+03 -6.6744E+03
     58 -1.0023E+00  5.1327E-01  3.5319E+00 -4.3172E+00 -3.2693E+01  1.1830E+01  8.6315E+03 -7.5302E+03 -1.9757E+03
     77  3.6670E+00 -3.0599E+00 -6.2114E+00 -1.6536E+00  7.6837E+00  1.8525E+01 -7.1673E+02 -4.6297E+03 -1.0563E+03
     96 -1.3966E+00 -1.0934E+00 -4.0099E+00  1.5784E+00 -4.8394E-01 -6.4219E+00 -1.0892E+04 -1.2361E+04  1.2435E+04
    115  1.2379E+00 -4.7080E+00 -1.0513E+00 -1.1293E+01  8.0166E-02  2.3582E+00 -5.9023E+03  7.5785E+03  1.0593E+04
    134 -8.3604E-01 -5.6077E+00  6.6657E+00  1.3091E+01 -1.4508E+01  1.0310E+01  3.7677E+03 -8.6446E+03 -5.0232E+03
    153  5.1123E+00 -3.4530E-01  6.6127E+00 -2.5653E+01 -2.5598E+00 -8.8307E+00 -1.3856E+03  2.1131E+03  1.6527E+03
    172 -2.2694E+00 -5.6095E+00 -4.5122E-01 -6.8691E+00  5.7415E+00 -6.6246E+00  1.2327E+04  1.5547E+04  5.8781E+03
    191 -3.0410E+00 -3.5420E-02 -6.2962E-01  4.6543E+00  2.0999E+00 -1.7313E+00  1.9359E+04 -9.6326E+02 -8.0262E+03
    210  3.0054E+00 -5.8710E-01 -1.6008E+00 -1.0573E+00  1.4011E+00  4.2266E+00  1.9302E+03 -3.2136E+02  1.2242E+04
    229  4.2667E+00  7.6545E+00 -1.8811E+00 -1.3159E+01  4.0829E+01 -3.2060E-01 -1.2380E+02 -1.3175E+03  6.7589E+03
    248  5.8994E+00 -2.2939E+00 -3.1595E+00  5.9196E+00  1.6862E+01  1.3374E+01 -1.2559E+03  4.1375E+02 -6.9272E+03
    267 -7.6226E+00  1.5681E+00  5.2877E+00  3.6589E+00 -9.4143E-01  1.0840E+00  6.4929E+03 -2.2950E+04 -3.8897E+03
    286 -8.7436E+00  6.6799E+00  6.2964E-01 -6.6503E+00  8.3832E+00 -1.6950E+01 -5.0367E+03  1.1040E+03 -8.3913E+02
    305 -6.1836E+00 -1.7524E+00 -4.3441E+00 -3.2681E+00  3.2586E+01 -3.8513E+00 -5.8386E+03  1.2818E+04  7.0174E+03
    324  4.1037E+00  2.1473E+00  2.5088E-01 -1.7495E+00  4.5791E+00 -8.4507E+00 -9.2570E+03 -3.6534E+03  1.7187E+04
    343 -5.0910E+00  5.8997E+00  3.2548E+00  5.4344E+00  7.3359E+00  5.5105E+00  1.4437E+04 -6.2272E+03  1.2549E+03
    362 -1.3258E+00 -4.3216E+00 -5.6136E+00  3.9034E+00  7.4718E+00  1.5857E+00 -2.2143E+03  8.5150E+03 -7.6516E+03

 time elapsed since job start =           0.511 seconds

