
                    DL_POLY Version 2.20

                              Running on    1 nodes


 ************************************************************************************************************************
 ************************************************************************************************************************
 ************************************************************************************************************************
 ***************     DL_POLY CONTROL file                                                                 ***************
 ************************************************************************************************************************
 ************************************************************************************************************************
 ************************************************************************************************************************


 SIMULATION CONTROL PARAMETERS


 simulation temperature           3.0000E+02

 simulation timestep              1.0000E-03

 selected number of timesteps          100

 real space cut off               7.0000E+00

 real space cut off (vdw)         7.0000E+00

 border width of Verlet shell     5.0000E-01

 Ewald sum  precision             5.0000E-06

 Electrostatics : Ewald sum  

 Ewald convergence parameter      4.3085E-01
 Ewald kmax1 kmax2 kmax3         7    7    7

 tolerance for SHAKE              1.0000E-08

 trajectory file option on  
 trajectory file start                   0
 trajectory file interval                1
 trajectory file info key                2

 data printing interval                  1

 data stacking interval               1000

 statistics file interval             1000

 user allocated job time (s)      1.0000E+08

 job closure time        (s)      1.0000E+03


SYSTEM SPECIFICATION

 energy units=kjoule/mol 


 number of molecular types               1

 molecular species type                  1


 name of species:             Unnamed001                              

 number of molecules                    41

 number of atoms/sites                   9


 atomic characteristics:

                      site     name          mass        charge    repeat    freeze

                         1     CT          12.01100    -0.18000         1         0
                         2     CT          12.01100     0.14500         1         0
                         3     HC           1.00800     0.06000         1         0
                         4     HC           1.00800     0.06000         1         0
                         5     HC           1.00800     0.06000         1         0
                         6     OH_a        15.99900    -0.68300         1         0
                         7     HC           1.00800     0.06000         1         0
                         8     HC           1.00800     0.06000         1         0
                         9     HO           1.00800     0.41800         1         0

 number of chemical bonds                8


 chemical bond details:

                            key     index     index                            parameters

                           harm         1         2     2.242624E+03   1.529000E+00   0.000000E+00   0.000000E+00
                           harm         1         3     2.845120E+03   1.090000E+00   0.000000E+00   0.000000E+00
                           harm         1         4     2.845120E+03   1.090000E+00   0.000000E+00   0.000000E+00
                           harm         1         5     2.845120E+03   1.090000E+00   0.000000E+00   0.000000E+00
                           harm         2         6     2.677760E+03   1.410000E+00   0.000000E+00   0.000000E+00
                           harm         2         7     2.845120E+03   1.090000E+00   0.000000E+00   0.000000E+00
                           harm         2         8     2.845120E+03   1.090000E+00   0.000000E+00   0.000000E+00
                           harm         6         9     4.627504E+03   9.450000E-01   0.000000E+00   0.000000E+00

 number of bond angles                  13


 bond angle details:

                            key     index     index     index     f-const       angle

                           harm         2         1         3  3.1380E+02  110.700000    0.000000    0.000000    0.000000    0.000000
                           harm         2         1         4  3.1380E+02  110.700000    0.000000    0.000000    0.000000    0.000000
                           harm         2         1         5  3.1380E+02  110.700000    0.000000    0.000000    0.000000    0.000000
                           harm         3         1         4  2.7614E+02  107.800000    0.000000    0.000000    0.000000    0.000000
                           harm         3         1         5  2.7614E+02  107.800000    0.000000    0.000000    0.000000    0.000000
                           harm         4         1         5  2.7614E+02  107.800000    0.000000    0.000000    0.000000    0.000000
                           harm         1         2         6  4.1840E+02  109.500000    0.000000    0.000000    0.000000    0.000000
                           harm         1         2         7  3.1380E+02  110.700000    0.000000    0.000000    0.000000    0.000000
                           harm         1         2         8  3.1380E+02  110.700000    0.000000    0.000000    0.000000    0.000000
                           harm         6         2         7  2.9288E+02  109.500000    0.000000    0.000000    0.000000    0.000000
                           harm         6         2         8  2.9288E+02  109.500000    0.000000    0.000000    0.000000    0.000000
                           harm         7         2         8  2.7614E+02  107.800000    0.000000    0.000000    0.000000    0.000000
                           harm         2         6         9  4.6024E+02  108.500000    0.000000    0.000000    0.000000    0.000000

 number of dihedral angles              12


 dihedral angle details:

                            key     index     index     index     index     f-const       angle        trig    1-4 elec     1-4 vdw

                           cos3         3         1         2         6  0.0000E+00    0.000000    1.958100    0.500000    0.500000
                           cos3         3         1         2         7  0.0000E+00    0.000000    1.255200    0.500000    0.500000
                           cos3         3         1         2         8  0.0000E+00    0.000000    1.255200    0.500000    0.500000
                           cos3         4         1         2         6  0.0000E+00    0.000000    1.958100    0.500000    0.500000
                           cos3         4         1         2         7  0.0000E+00    0.000000    1.255200    0.500000    0.500000
                           cos3         4         1         2         8  0.0000E+00    0.000000    1.255200    0.500000    0.500000
                           cos3         5         1         2         6  0.0000E+00    0.000000    1.958100    0.500000    0.500000
                           cos3         5         1         2         7  0.0000E+00    0.000000    1.255200    0.500000    0.500000
                           cos3         5         1         2         8  0.0000E+00    0.000000    1.255200    0.500000    0.500000
                           cos3         1         2         6         9 -1.4895E+00   -0.728000    2.058500    0.500000    0.500000
                           cos3         7         2         6         9  0.0000E+00    0.000000    1.474400    0.500000    0.500000
                           cos3         8         2         6         9  0.0000E+00    0.000000    1.474400    0.500000    0.500000


 number of specified pair potentials        10


                atom 1  atom 2      key                              parameters


                CT      CT        lj       2.76144E-01  3.50000E+00
                HC      CT        lj       1.86176E-01  2.95804E+00
                HC      HC        lj       1.25520E-01  2.50000E+00
                OH_a    CT        lj       4.43188E-01  3.30454E+00
                OH_a    HC        lj       2.98797E-01  2.79285E+00
                OH_a    OH_a      lj       7.11280E-01  3.12000E+00
                HO      CT        lj       0.00000E+00  0.00000E+00
                HO      HC        lj       0.00000E+00  0.00000E+00
                HO      OH_a      lj       0.00000E+00  0.00000E+00
                HO      HO        lj       0.00000E+00  0.00000E+00

 configuration file name: 

          Unnamed002                                                                      


 selected image convention               3


 simulation cell vectors


                        16.000000    0.000000    0.000000
                        -2.778371   15.756924    0.000000
                        -2.778371   -0.489902   15.749307


 system volume            3970.56997248    


 total degrees of freedom                      1104.
 rotational degrees of freedom                    0.
 shell pseudo degrees of freedom                  0.


 sample of starting configuration

      i       x(i)        y(i)        z(i)       vx(i)       vy(i)       vz(i)


      1  1.5005E+00  1.4860E+00  5.1917E+00  8.9779E+00 -2.4256E+00 -4.6596E+00
     20 -4.6318E+00 -2.9771E+00  2.9811E+00 -4.1712E+00 -3.7191E-01 -8.6434E-01
     39 -6.0242E+00  6.8130E+00 -3.0898E+00  1.7740E+01  1.1062E+01 -5.1322E+00
     58 -1.3673E+00  7.8810E-01  2.8433E+00  5.1152E+00 -6.8110E+00 -3.3978E+00
     77  3.3612E+00 -3.1240E+00 -6.1553E+00  2.4190E+00  1.6680E+01  9.3957E+00
     96 -1.7599E+00 -1.0910E+00 -3.2625E+00  1.7684E+00 -1.8913E-01 -2.9878E+00
    115  1.3377E+00 -4.0756E+00 -2.1017E+00  8.1705E+00 -1.7108E+01  2.0002E+01
    134 -7.3932E-01 -5.5231E+00  6.1713E+00  1.9264E+01  6.0733E+00  2.5577E+01
    153  6.0875E+00  1.0064E+00  6.2329E+00  1.1205E+01 -1.0676E+01  9.1966E+00
    172 -2.4439E+00 -5.8204E+00 -1.8659E-01  5.2165E+00 -7.3526E+00 -9.5750E-01
    191 -2.9866E+00 -2.8376E-01 -5.9915E-01 -6.1861E+00  3.1339E+00 -2.8663E+00
    210  3.6972E+00 -9.0289E-01 -1.5724E+00  1.9092E+00 -2.2018E+01  5.3498E+00
    229  4.7945E+00  7.5322E+00 -1.7769E+00 -1.9624E+01  2.5660E+01 -2.3954E+01
    248  5.3667E+00 -1.6128E+00 -4.1041E+00  6.1580E+00 -1.6798E+01  2.8590E+01
    267 -8.3303E+00  1.0403E+00  5.4238E+00  3.0350E+00  3.4573E+00  5.6026E+00
    286 -9.3437E+00  6.5383E+00  1.6936E+00 -1.1324E+01 -2.9297E+00 -1.1940E+01
    305 -5.4223E+00 -1.5595E+00 -4.3020E+00 -1.1425E+01  1.6682E+01 -6.1965E-01
    324  3.8298E+00  1.6410E+00 -8.9434E-02  1.9027E+01  1.6812E+01  3.6748E+00
    343 -5.6204E+00  6.0427E+00  2.8807E+00  2.7037E+00  5.1864E+00 -6.4853E-01
    362 -1.6743E+00 -4.4773E+00 -5.3749E+00 -1.6221E+00 -4.5913E+00  1.5157E+00


long range correction for: vdw energy    -0.997396E+02
                         : vdw pressure  -0.820948E+00

 time elapsed since job start =           0.007 seconds

 ------------------------------------------------------------------------------------------------------------------------

     step     eng_tot    temp_tot     eng_cfg     eng_vdw     eng_cou     eng_bnd     eng_ang     eng_dih     eng_tet
 time(ps)      eng_pv    temp_rot     vir_cfg     vir_vdw     vir_cou     vir_bnd     vir_ang     vir_con     vir_tet
 cpu  (s)      volume    temp_shl     eng_shl     vir_shl       alpha        beta       gamma     vir_pmf       press

 ------------------------------------------------------------------------------------------------------------------------
        1  1.1023E+03  3.1280E+02 -3.3333E+02 -4.7883E+02 -9.5190E+02  4.0279E+02  6.0346E+02  9.1146E+01  0.0000E+00
      0.0  2.3440E+03  0.0000E+00 -8.5396E+02 -3.8649E+03  9.5073E+02  2.0602E+03  0.0000E+00  0.0000E+00  0.0000E+00
      0.0  3.9706E+03  0.0000E+00  0.0000E+00  0.0000E+00  9.0000E+01  1.0000E+02  1.0000E+02  0.0000E+00  5.1252E+00

  rolling  1.1023E+03  3.1280E+02 -3.3333E+02 -4.7883E+02 -9.5190E+02  4.0279E+02  6.0346E+02  9.1146E+01  0.0000E+00
 averages  2.3440E+03  0.0000E+00 -8.5396E+02 -3.8649E+03  9.5073E+02  2.0602E+03  0.0000E+00  0.0000E+00  0.0000E+00
           3.9706E+03  0.0000E+00  0.0000E+00  0.0000E+00  9.0000E+01  1.0000E+02  1.0000E+02  0.0000E+00  5.1252E+00
 ------------------------------------------------------------------------------------------------------------------------
        2  1.0937E+03  3.4101E+02 -4.7139E+02 -4.7841E+02 -9.6232E+02  3.1759E+02  5.6170E+02  9.0056E+01  0.0000E+00
      0.0  2.2921E+03  0.0000E+00 -4.6491E+02 -3.8693E+03  9.6109E+02  2.4433E+03  0.0000E+00  0.0000E+00  0.0000E+00
      0.0  3.9706E+03  0.0000E+00  0.0000E+00  0.0000E+00  9.0000E+01  1.0000E+02  1.0000E+02  0.0000E+00  4.9462E+00

  rolling  1.0980E+03  3.2690E+02 -4.0236E+02 -4.7862E+02 -9.5711E+02  3.6019E+02  5.8258E+02  9.0601E+01  0.0000E+00
 averages  2.3180E+03  0.0000E+00 -6.5944E+02 -3.8671E+03  9.5591E+02  2.2518E+03  0.0000E+00  0.0000E+00  0.0000E+00
           3.9706E+03  0.0000E+00  0.0000E+00  0.0000E+00  9.0000E+01  1.0000E+02  1.0000E+02  0.0000E+00  5.0357E+00
 ------------------------------------------------------------------------------------------------------------------------
        3  1.1001E+03  3.3564E+02 -4.4035E+02 -4.7605E+02 -9.7993E+02  3.9895E+02  5.2759E+02  8.9086E+01  0.0000E+00
      0.0  1.6598E+03  0.0000E+00  1.4019E+03 -3.9011E+03  9.7865E+02  4.3243E+03  0.0000E+00  0.0000E+00  0.0000E+00
      0.0  3.9706E+03  0.0000E+00  0.0000E+00  0.0000E+00  9.0000E+01  1.0000E+02  1.0000E+02  0.0000E+00  2.3100E+00

  rolling  1.0987E+03  3.2981E+02 -4.1502E+02 -4.7776E+02 -9.6472E+02  3.7311E+02  5.6425E+02  9.0096E+01  0.0000E+00
 averages  2.0986E+03  0.0000E+00  2.7668E+01 -3.8784E+03  9.6349E+02  2.9426E+03  0.0000E+00  0.0000E+00  0.0000E+00
           3.9706E+03  0.0000E+00  0.0000E+00  0.0000E+00  9.0000E+01  1.0000E+02  1.0000E+02  0.0000E+00  4.1271E+00
 ------------------------------------------------------------------------------------------------------------------------
        4  1.1109E+03  3.1420E+02 -3.3111E+02 -4.7136E+02 -9.9840E+02  5.4068E+02  5.0957E+02  8.8388E+01  0.0000E+00
      0.0  7.7513E+02  0.0000E+00  3.8916E+03 -3.9639E+03  9.9705E+02  6.8584E+03  0.0000E+00  0.0000E+00  0.0000E+00
      0.0  3.9706E+03  0.0000E+00  0.0000E+00  0.0000E+00  9.0000E+01  1.0000E+02  1.0000E+02  0.0000E+00 -1.3861E+00

  rolling  1.1018E+03  3.2591E+02 -3.9405E+02 -4.7616E+02 -9.7314E+02  4.1500E+02  5.5058E+02  8.9669E+01  0.0000E+00
 averages  1.7677E+03  0.0000E+00  9.9364E+02 -3.8998E+03  9.7188E+02  3.9216E+03  0.0000E+00  0.0000E+00  0.0000E+00
           3.9706E+03  0.0000E+00  0.0000E+00  0.0000E+00  9.0000E+01  1.0000E+02  1.0000E+02  0.0000E+00  2.7488E+00
 ------------------------------------------------------------------------------------------------------------------------
        5  1.1113E+03  3.0804E+02 -3.0245E+02 -4.6589E+02 -1.0099E+03  5.7409E+02  5.1121E+02  8.8050E+01  0.0000E+00
      0.0  1.0320E+02  0.0000E+00  5.8520E+03 -4.0358E+03  1.0085E+03  8.8792E+03  0.0000E+00  0.0000E+00  0.0000E+00
      0.1  3.9706E+03  0.0000E+00  0.0000E+00  0.0000E+00  9.0000E+01  1.0000E+02  1.0000E+02  0.0000E+00 -4.1610E+00

  rolling  1.1037E+03  3.2234E+02 -3.7573E+02 -4.7411E+02 -9.8049E+02  4.4682E+02  5.4271E+02  8.9346E+01  0.0000E+00
 averages  1.4348E+03  0.0000E+00  1.9653E+03 -3.9270E+03  9.7920E+02  4.9131E+03  0.0000E+00  0.0000E+00  0.0000E+00
           3.9706E+03  0.0000E+00  0.0000E+00  0.0000E+00  9.0000E+01  1.0000E+02  1.0000E+02  0.0000E+00  1.3669E+00
 ------------------------------------------------------------------------------------------------------------------------
        6  1.1031E+03  3.1984E+02 -3.6488E+02 -4.6168E+02 -1.0100E+03  4.8803E+02  5.3076E+02  8.8054E+01  0.0000E+00
      0.0 -1.1450E+02  0.0000E+00  6.5886E+03 -4.0883E+03  1.0085E+03  9.6684E+03  0.0000E+00  0.0000E+00  0.0000E+00
      0.1  3.9706E+03  0.0000E+00  0.0000E+00  0.0000E+00  9.0000E+01  1.0000E+02  1.0000E+02  0.0000E+00 -5.0254E+00

  rolling  1.1036E+03  3.2192E+02 -3.7392E+02 -4.7204E+02 -9.8542E+02  4.5369E+02  5.4072E+02  8.9130E+01  0.0000E+00
 averages  1.1766E+03  0.0000E+00  2.7359E+03 -3.9539E+03  9.8409E+02  5.7057E+03  0.0000E+00  0.0000E+00  0.0000E+00
           3.9706E+03  0.0000E+00  0.0000E+00  0.0000E+00  9.0000E+01  1.0000E+02  1.0000E+02  0.0000E+00  3.0147E-01
 ------------------------------------------------------------------------------------------------------------------------
        7  1.0988E+03  3.2682E+02 -4.0120E+02 -4.5955E+02 -9.9945E+02  4.0676E+02  5.6275E+02  8.8287E+01  0.0000E+00
      0.0  7.8219E+01  0.0000E+00  6.0617E+03 -4.1113E+03  9.9796E+02  9.1751E+03  0.0000E+00  0.0000E+00  0.0000E+00
      0.1  3.9706E+03  0.0000E+00  0.0000E+00  0.0000E+00  9.0000E+01  1.0000E+02  1.0000E+02  0.0000E+00 -4.2124E+00

  rolling  1.1029E+03  3.2262E+02 -3.7782E+02 -4.7025E+02 -9.8742E+02  4.4699E+02  5.4386E+02  8.9010E+01  0.0000E+00
 averages  1.0197E+03  0.0000E+00  3.2110E+03 -3.9764E+03  9.8607E+02  6.2013E+03  0.0000E+00  0.0000E+00  0.0000E+00
           3.9706E+03  0.0000E+00  0.0000E+00  0.0000E+00  9.0000E+01  1.0000E+02  1.0000E+02  0.0000E+00 -3.4336E-01
 ------------------------------------------------------------------------------------------------------------------------
        8  1.1027E+03  3.1616E+02 -3.4836E+02 -4.5902E+02 -9.8241E+02  4.0465E+02  5.9984E+02  8.8576E+01  0.0000E+00
      0.0  5.3544E+02  0.0000E+00  4.6037E+03 -4.1099E+03  9.8094E+02  7.7327E+03  0.0000E+00  0.0000E+00  0.0000E+00
      0.1  3.9706E+03  0.0000E+00  0.0000E+00  0.0000E+00  9.0000E+01  1.0000E+02  1.0000E+02  0.0000E+00 -2.3412E+00

  rolling  1.1029E+03  3.2181E+02 -3.7413E+02 -4.6885E+02 -9.8680E+02  4.4169E+02  5.5086E+02  8.8956E+01  0.0000E+00
 averages  9.5917E+02  0.0000E+00  3.3851E+03 -3.9931E+03  9.8543E+02  6.3927E+03  0.0000E+00  0.0000E+00  0.0000E+00
           3.9706E+03  0.0000E+00  0.0000E+00  0.0000E+00  9.0000E+01  1.0000E+02  1.0000E+02  0.0000E+00 -5.9309E-01
 ------------------------------------------------------------------------------------------------------------------------
 ------------------------------------------------------------------------------------------------------------------------

     step     eng_tot    temp_tot     eng_cfg     eng_vdw     eng_cou     eng_bnd     eng_ang     eng_dih     eng_tet
 time(ps)      eng_pv    temp_rot     vir_cfg     vir_vdw     vir_cou     vir_bnd     vir_ang     vir_con     vir_tet
 cpu  (s)      volume    temp_shl     eng_shl     vir_shl       alpha        beta       gamma     vir_pmf       press

 ------------------------------------------------------------------------------------------------------------------------
        9  1.1074E+03  2.9791E+02 -2.5991E+02 -4.5993E+02 -9.6496E+02  4.4227E+02  6.3399E+02  8.8722E+01  0.0000E+00
      0.0  1.1204E+03  0.0000E+00  2.6956E+03 -4.0858E+03  9.6363E+02  5.8178E+03  0.0000E+00  0.0000E+00  0.0000E+00
      0.1  3.9706E+03  0.0000E+00  0.0000E+00  0.0000E+00  9.0000E+01  1.0000E+02  1.0000E+02  0.0000E+00  5.3616E-02

  rolling  1.1034E+03  3.1916E+02 -3.6144E+02 -4.6786E+02 -9.8437E+02  4.4176E+02  5.6010E+02  8.8930E+01  0.0000E+00
 averages  9.7708E+02  0.0000E+00  3.3085E+03 -4.0034E+03  9.8301E+02  6.3288E+03  0.0000E+00  0.0000E+00  0.0000E+00
           3.9706E+03  0.0000E+00  0.0000E+00  0.0000E+00  9.0000E+01  1.0000E+02  1.0000E+02  0.0000E+00 -5.2123E-01
 ------------------------------------------------------------------------------------------------------------------------
       10  1.1082E+03  2.8598E+02 -2.0438E+02 -4.6248E+02 -9.5333E+02  4.6549E+02  6.5739E+02  8.8544E+01  0.0000E+00
      0.0  1.6768E+03  0.0000E+00  9.1926E+02 -4.0385E+03  9.5203E+02  4.0057E+03  0.0000E+00  0.0000E+00  0.0000E+00
      0.1  3.9706E+03  0.0000E+00  0.0000E+00  0.0000E+00  9.0000E+01  1.0000E+02  1.0000E+02  0.0000E+00  2.3469E+00

  rolling  1.1038E+03  3.1584E+02 -3.4574E+02 -4.6732E+02 -9.8127E+02  4.4413E+02  5.6983E+02  8.8891E+01  0.0000E+00
 averages  1.0471E+03  0.0000E+00  3.0696E+03 -4.0069E+03  9.7991E+02  6.0965E+03  0.0000E+00  0.0000E+00  0.0000E+00
           3.9706E+03  0.0000E+00  0.0000E+00  0.0000E+00  9.0000E+01  1.0000E+02  1.0000E+02  0.0000E+00 -2.3442E-01
 ------------------------------------------------------------------------------------------------------------------------
       11  1.1078E+03  2.8416E+02 -1.9637E+02 -4.6649E+02 -9.5154E+02  4.6934E+02  6.6439E+02  8.7940E+01  0.0000E+00
      0.0  2.0386E+03  0.0000E+00 -1.8410E+02 -3.9728E+03  9.5027E+02  2.8385E+03  0.0000E+00  0.0000E+00  0.0000E+00
      0.1  3.9706E+03  0.0000E+00  0.0000E+00  0.0000E+00  9.0000E+01  1.0000E+02  1.0000E+02  0.0000E+00  3.8419E+00

  rolling  1.1042E+03  3.1296E+02 -3.3216E+02 -4.6724E+02 -9.7856E+02  4.4642E+02  5.7842E+02  8.8805E+01  0.0000E+00
 averages  1.1372E+03  0.0000E+00  2.7738E+03 -4.0038E+03  9.7722E+02  5.8003E+03  0.0000E+00  0.0000E+00  0.0000E+00
           3.9706E+03  0.0000E+00  0.0000E+00  0.0000E+00  9.0000E+01  1.0000E+02  1.0000E+02  0.0000E+00  1.3616E-01
 ------------------------------------------------------------------------------------------------------------------------
       12  1.1077E+03  2.9197E+02 -2.3229E+02 -4.7099E+02 -9.5858E+02  4.5671E+02  6.5363E+02  8.6943E+01  0.0000E+00
      0.0  2.1266E+03  0.0000E+00 -3.7656E+02 -3.9024E+03  9.5729E+02  2.5686E+03  0.0000E+00  0.0000E+00  0.0000E+00
      0.1  3.9706E+03  0.0000E+00  0.0000E+00  0.0000E+00  9.0000E+01  1.0000E+02  1.0000E+02  0.0000E+00  4.2054E+00

  rolling  1.1045E+03  3.1121E+02 -3.2384E+02 -4.6756E+02 -9.7690E+02  4.4728E+02  5.8469E+02  8.8649E+01  0.0000E+00
 averages  1.2196E+03  0.0000E+00  2.5112E+03 -3.9953E+03  9.7556E+02  5.5310E+03  0.0000E+00  0.0000E+00  0.0000E+00
           3.9706E+03  0.0000E+00  0.0000E+00  0.0000E+00  9.0000E+01  1.0000E+02  1.0000E+02  0.0000E+00  4.7526E-01
 ------------------------------------------------------------------------------------------------------------------------
       13  1.1048E+03  3.0772E+02 -3.0748E+02 -4.7496E+02 -9.6819E+02  4.2086E+02  6.2908E+02  8.5726E+01  0.0000E+00
      0.0  1.9744E+03  0.0000E+00  2.1583E+02 -3.8420E+03  9.6694E+02  3.0909E+03  0.0000E+00  0.0000E+00  0.0000E+00
      0.1  3.9706E+03  0.0000E+00  0.0000E+00  0.0000E+00  9.0000E+01  1.0000E+02  1.0000E+02  0.0000E+00  3.5892E+00

  rolling  1.1045E+03  3.1094E+02 -3.2258E+02 -4.6813E+02 -9.7623E+02  4.4525E+02  5.8810E+02  8.8425E+01  0.0000E+00
 averages  1.2777E+03  0.0000E+00  2.3347E+03 -3.9835E+03  9.7489E+02  5.3433E+03  0.0000E+00  0.0000E+00  0.0000E+00
           3.9706E+03  0.0000E+00  0.0000E+00  0.0000E+00  9.0000E+01  1.0000E+02  1.0000E+02  0.0000E+00  7.1479E-01
 ------------------------------------------------------------------------------------------------------------------------
       14  1.1001E+03  3.2145E+02 -3.7526E+02 -4.7815E+02 -9.7300E+02  3.9262E+02  5.9873E+02  8.4536E+01  0.0000E+00
      0.0  1.6478E+03  0.0000E+00  1.3075E+03 -3.7972E+03  9.7169E+02  4.1331E+03  0.0000E+00  0.0000E+00  0.0000E+00
      0.1  3.9706E+03  0.0000E+00  0.0000E+00  0.0000E+00  9.0000E+01  1.0000E+02  1.0000E+02  0.0000E+00  2.2607E+00

  rolling  1.1042E+03  3.1169E+02 -3.2634E+02 -4.6884E+02 -9.7600E+02  4.4149E+02  5.8886E+02  8.8147E+01  0.0000E+00
 averages  1.3041E+03  0.0000E+00  2.2613E+03 -3.9702E+03  9.7466E+02  5.2569E+03  0.0000E+00  0.0000E+00  0.0000E+00
           3.9706E+03  0.0000E+00  0.0000E+00  0.0000E+00  9.0000E+01  1.0000E+02  1.0000E+02  0.0000E+00  8.2521E-01
 ------------------------------------------------------------------------------------------------------------------------
       15  1.1010E+03  3.2024E+02 -3.6881E+02 -4.8086E+02 -9.6951E+02  4.2658E+02  5.7140E+02  8.3580E+01  0.0000E+00
      0.0  1.2141E+03  0.0000E+00  2.6001E+03 -3.7626E+03  9.6817E+02  5.3946E+03  0.0000E+00  0.0000E+00  0.0000E+00
      0.1  3.9706E+03  0.0000E+00  0.0000E+00  0.0000E+00  9.0000E+01  1.0000E+02  1.0000E+02  0.0000E+00  4.6704E-01

  rolling  1.1040E+03  3.1226E+02 -3.2917E+02 -4.6964E+02 -9.7557E+02  4.4049E+02  5.8770E+02  8.7842E+01  0.0000E+00
 averages  1.2981E+03  0.0000E+00  2.2839E+03 -3.9564E+03  9.7423E+02  5.2661E+03  0.0000E+00  0.0000E+00  0.0000E+00
           3.9706E+03  0.0000E+00  0.0000E+00  0.0000E+00  9.0000E+01  1.0000E+02  1.0000E+02  0.0000E+00  8.0133E-01
 ------------------------------------------------------------------------------------------------------------------------
       16  1.1084E+03  3.0776E+02 -3.0412E+02 -4.8409E+02 -9.5919E+02  5.0259E+02  5.5363E+02  8.2955E+01  0.0000E+00
      0.0  8.0208E+02  0.0000E+00  3.7439E+03 -3.7231E+03  9.5779E+02  6.5093E+03  0.0000E+00  0.0000E+00  0.0000E+00
      0.2  3.9706E+03  0.0000E+00  0.0000E+00  0.0000E+00  9.0000E+01  1.0000E+02  1.0000E+02  0.0000E+00 -1.2642E+00

  rolling  1.1043E+03  3.1198E+02 -3.2761E+02 -4.7055E+02 -9.7454E+02  4.4438E+02  5.8557E+02  8.7537E+01  0.0000E+00
 averages  1.2671E+03  0.0000E+00  2.3751E+03 -3.9418E+03  9.7320E+02  5.3438E+03  0.0000E+00  0.0000E+00  0.0000E+00
           3.9706E+03  0.0000E+00  0.0000E+00  0.0000E+00  9.0000E+01  1.0000E+02  1.0000E+02  0.0000E+00  6.7224E-01
 ------------------------------------------------------------------------------------------------------------------------
 ------------------------------------------------------------------------------------------------------------------------

     step     eng_tot    temp_tot     eng_cfg     eng_vdw     eng_cou     eng_bnd     eng_ang     eng_dih     eng_tet
 time(ps)      eng_pv    temp_rot     vir_cfg     vir_vdw     vir_cou     vir_bnd     vir_ang     vir_con     vir_tet
 cpu  (s)      volume    temp_shl     eng_shl     vir_shl       alpha        beta       gamma     vir_pmf       press

 ------------------------------------------------------------------------------------------------------------------------
       17  1.1117E+03  3.0497E+02 -2.8797E+02 -4.8840E+02 -9.4630E+02  5.1575E+02  5.4833E+02  8.2640E+01  0.0000E+00
      0.0  5.8269E+02  0.0000E+00  4.3866E+03 -3.6699E+03  9.4486E+02  7.1116E+03  0.0000E+00  0.0000E+00  0.0000E+00
      0.2  3.9706E+03  0.0000E+00  0.0000E+00  0.0000E+00  9.0000E+01  1.0000E+02  1.0000E+02  0.0000E+00 -2.1836E+00

  rolling  1.1047E+03  3.1157E+02 -3.2528E+02 -4.7160E+02 -9.7288E+02  4.4857E+02  5.8338E+02  8.7249E+01  0.0000E+00
 averages  1.2269E+03  0.0000E+00  2.4935E+03 -3.9258E+03  9.7154E+02  5.4477E+03  0.0000E+00  0.0000E+00  0.0000E+00
           3.9706E+03  0.0000E+00  0.0000E+00  0.0000E+00  9.0000E+01  1.0000E+02  1.0000E+02  0.0000E+00  5.0424E-01
 ------------------------------------------------------------------------------------------------------------------------
       18  1.1045E+03  3.2065E+02 -3.6722E+02 -4.9306E+02 -9.3561E+02  4.2348E+02  5.5541E+02  8.2555E+01  0.0000E+00
      0.0  6.0375E+02  0.0000E+00  4.4455E+03 -3.6097E+03  9.3418E+02  7.1210E+03  0.0000E+00  0.0000E+00  0.0000E+00
      0.2  3.9706E+03  0.0000E+00  0.0000E+00  0.0000E+00  9.0000E+01  1.0000E+02  1.0000E+02  0.0000E+00 -2.0667E+00

  rolling  1.1047E+03  3.1207E+02 -3.2761E+02 -4.7279E+02 -9.7081E+02  4.4718E+02  5.8183E+02  8.6988E+01  0.0000E+00
 averages  1.1923E+03  0.0000E+00  2.6019E+03 -3.9083E+03  9.6946E+02  5.5407E+03  0.0000E+00  0.0000E+00  0.0000E+00
           3.9706E+03  0.0000E+00  0.0000E+00  0.0000E+00  9.0000E+01  1.0000E+02  1.0000E+02  0.0000E+00  3.6142E-01
 ------------------------------------------------------------------------------------------------------------------------
       19  1.0959E+03  3.3367E+02 -4.3550E+02 -4.9728E+02 -9.3121E+02  3.3758E+02  5.7278E+02  8.2628E+01  0.0000E+00
      0.0  7.0928E+02  0.0000E+00  4.2228E+03 -3.5527E+03  9.2990E+02  6.8457E+03  0.0000E+00  0.0000E+00  0.0000E+00
      0.2  3.9706E+03  0.0000E+00  0.0000E+00  0.0000E+00  9.0000E+01  1.0000E+02  1.0000E+02  0.0000E+00 -1.5959E+00

  rolling  1.1042E+03  3.1321E+02 -3.3328E+02 -4.7408E+02 -9.6873E+02  4.4141E+02  5.8135E+02  8.6759E+01  0.0000E+00
 averages  1.1668E+03  0.0000E+00  2.6872E+03 -3.8895E+03  9.6738E+02  5.6094E+03  0.0000E+00  0.0000E+00  0.0000E+00
           3.9706E+03  0.0000E+00  0.0000E+00  0.0000E+00  9.0000E+01  1.0000E+02  1.0000E+02  0.0000E+00  2.5840E-01
 ------------------------------------------------------------------------------------------------------------------------
       20  1.0993E+03  3.2027E+02 -3.7062E+02 -5.0057E+02 -9.3505E+02  3.8539E+02  5.9678E+02  8.2825E+01  0.0000E+00
      0.0  7.3011E+02  0.0000E+00  4.0473E+03 -3.5063E+03  9.3384E+02  6.6198E+03  0.0000E+00  0.0000E+00  0.0000E+00
      0.2  3.9706E+03  0.0000E+00  0.0000E+00  0.0000E+00  9.0000E+01  1.0000E+02  1.0000E+02  0.0000E+00 -1.5237E+00

  rolling  1.1040E+03  3.1356E+02 -3.3515E+02 -4.7540E+02 -9.6704E+02  4.3861E+02  5.8212E+02  8.6562E+01  0.0000E+00
 averages  1.1450E+03  0.0000E+00  2.7552E+03 -3.8704E+03  9.6570E+02  5.6599E+03  0.0000E+00  0.0000E+00  0.0000E+00
           3.9706E+03  0.0000E+00  0.0000E+00  0.0000E+00  9.0000E+01  1.0000E+02  1.0000E+02  0.0000E+00  1.6930E-01
 ------------------------------------------------------------------------------------------------------------------------
       21  1.1110E+03  2.9044E+02 -2.2201E+02 -5.0277E+02 -9.4509E+02  5.2053E+02  6.2217E+02  8.3151E+01  0.0000E+00
      0.0  7.1287E+02  0.0000E+00  3.8604E+03 -3.4729E+03  9.4393E+02  6.3894E+03  0.0000E+00  0.0000E+00  0.0000E+00
      0.2  3.9706E+03  0.0000E+00  0.0000E+00  0.0000E+00  9.0000E+01  1.0000E+02  1.0000E+02  0.0000E+00 -1.6433E+00

  rolling  1.1043E+03  3.1246E+02 -3.2976E+02 -4.7671E+02 -9.6600E+02  4.4251E+02  5.8403E+02  8.6399E+01  0.0000E+00
 averages  1.1244E+03  0.0000E+00  2.8078E+03 -3.8515E+03  9.6467E+02  5.6946E+03  0.0000E+00  0.0000E+00  0.0000E+00
           3.9706E+03  0.0000E+00  0.0000E+00  0.0000E+00  9.0000E+01  1.0000E+02  1.0000E+02  0.0000E+00  8.2983E-02
 ------------------------------------------------------------------------------------------------------------------------
       22  1.1151E+03  2.7751E+02 -1.5859E+02 -5.0421E+02 -9.5550E+02  5.7510E+02  6.4241E+02  8.3609E+01  0.0000E+00
      0.0  8.4678E+02  0.0000E+00  3.3521E+03 -3.4491E+03  9.5437E+02  5.8469E+03  0.0000E+00  0.0000E+00  0.0000E+00
      0.2  3.9706E+03  0.0000E+00  0.0000E+00  0.0000E+00  9.0000E+01  1.0000E+02  1.0000E+02  0.0000E+00 -1.1073E+00

  rolling  1.1048E+03  3.1087E+02 -3.2198E+02 -4.7796E+02 -9.6552E+02  4.4854E+02  5.8668E+02  8.6273E+01  0.0000E+00
 averages  1.1118E+03  0.0000E+00  2.8326E+03 -3.8332E+03  9.6420E+02  5.7016E+03  0.0000E+00  0.0000E+00  0.0000E+00
           3.9706E+03  0.0000E+00  0.0000E+00  0.0000E+00  9.0000E+01  1.0000E+02  1.0000E+02  0.0000E+00  2.8880E-02
 ------------------------------------------------------------------------------------------------------------------------
       23  1.1063E+03  2.9298E+02 -2.3839E+02 -5.0567E+02 -9.6023E+02  4.9207E+02  6.5128E+02  8.4163E+01  0.0000E+00
      0.0  1.1721E+03  0.0000E+00  2.4920E+03 -3.4281E+03  9.5904E+02  4.9611E+03  0.0000E+00  0.0000E+00  0.0000E+00
      0.2  3.9706E+03  0.0000E+00  0.0000E+00  0.0000E+00  9.0000E+01  1.0000E+02  1.0000E+02  0.0000E+00  2.7154E-01

  rolling  1.1049E+03  3.1010E+02 -3.1835E+02 -4.7916E+02 -9.6529E+02  4.5043E+02  5.8949E+02  8.6181E+01  0.0000E+00
 averages  1.1144E+03  0.0000E+00  2.8178E+03 -3.8156E+03  9.6397E+02  5.6694E+03  0.0000E+00  0.0000E+00  0.0000E+00
           3.9706E+03  0.0000E+00  0.0000E+00  0.0000E+00  9.0000E+01  1.0000E+02  1.0000E+02  0.0000E+00  3.9431E-02
 ------------------------------------------------------------------------------------------------------------------------
       24  1.0980E+03  3.1249E+02 -3.3623E+02 -5.0703E+02 -9.5681E+02  3.9740E+02  6.4547E+02  8.4741E+01  0.0000E+00
      0.0  1.4837E+03  0.0000E+00  1.7113E+03 -3.4120E+03  9.5550E+02  4.1678E+03  0.0000E+00  0.0000E+00  0.0000E+00
      0.2  3.9706E+03  0.0000E+00  0.0000E+00  0.0000E+00  9.0000E+01  1.0000E+02  1.0000E+02  0.0000E+00  1.5919E+00

  rolling  1.1046E+03  3.1020E+02 -3.1909E+02 -4.8032E+02 -9.6494E+02  4.4822E+02  5.9182E+02  8.6121E+01  0.0000E+00
 averages  1.1298E+03  0.0000E+00  2.7717E+03 -3.7987E+03  9.6362E+02  5.6068E+03  0.0000E+00  0.0000E+00  0.0000E+00
           3.9706E+03  0.0000E+00  0.0000E+00  0.0000E+00  9.0000E+01  1.0000E+02  1.0000E+02  0.0000E+00  1.0412E-01
 ------------------------------------------------------------------------------------------------------------------------
 ------------------------------------------------------------------------------------------------------------------------

     step     eng_tot    temp_tot     eng_cfg     eng_vdw     eng_cou     eng_bnd     eng_ang     eng_dih     eng_tet
 time(ps)      eng_pv    temp_rot     vir_cfg     vir_vdw     vir_cou     vir_bnd     vir_ang     vir_con     vir_tet
 cpu  (s)      volume    temp_shl     eng_shl     vir_shl       alpha        beta       gamma     vir_pmf       press

 ------------------------------------------------------------------------------------------------------------------------
       25  1.1012E+03  3.1209E+02 -3.3117E+02 -5.0779E+02 -9.4690E+02  4.1198E+02  6.2625E+02  8.5286E+01  0.0000E+00
      0.0  1.5539E+03  0.0000E+00  1.5067E+03 -3.4080E+03  9.4554E+02  3.9692E+03  0.0000E+00  0.0000E+00  0.0000E+00
      0.2  3.9706E+03  0.0000E+00  0.0000E+00  0.0000E+00  9.0000E+01  1.0000E+02  1.0000E+02  0.0000E+00  1.8684E+00

  rolling  1.1044E+03  3.1027E+02 -3.1958E+02 -4.8142E+02 -9.6421E+02  4.4677E+02  5.9320E+02  8.6088E+01  0.0000E+00
 averages  1.1468E+03  0.0000E+00  2.7211E+03 -3.7831E+03  9.6290E+02  5.5413E+03  0.0000E+00  0.0000E+00  0.0000E+00
           3.9706E+03  0.0000E+00  0.0000E+00  0.0000E+00  9.0000E+01  1.0000E+02  1.0000E+02  0.0000E+00  1.7469E-01
 ------------------------------------------------------------------------------------------------------------------------
       26  1.1095E+03  3.0003E+02 -2.6749E+02 -5.0775E+02 -9.3437E+02  4.9003E+02  5.9879E+02  8.5809E+01  0.0000E+00
      0.0  1.3544E+03  0.0000E+00  2.0193E+03 -3.4180E+03  9.3297E+02  4.5044E+03  0.0000E+00  0.0000E+00  0.0000E+00
      0.2  3.9706E+03  0.0000E+00  0.0000E+00  0.0000E+00  9.0000E+01  1.0000E+02  1.0000E+02  0.0000E+00  1.0108E+00

  rolling  1.1046E+03  3.0988E+02 -3.1757E+02 -4.8243E+02 -9.6307E+02  4.4844E+02  5.9341E+02  8.6077E+01  0.0000E+00
 averages  1.1548E+03  0.0000E+00  2.6941E+03 -3.7691E+03  9.6175E+02  5.5014E+03  0.0000E+00  0.0000E+00  0.0000E+00
           3.9706E+03  0.0000E+00  0.0000E+00  0.0000E+00  9.0000E+01  1.0000E+02  1.0000E+02  0.0000E+00  2.0685E-01
 ------------------------------------------------------------------------------------------------------------------------
       27  1.1106E+03  2.9965E+02 -2.6464E+02 -5.0701E+02 -9.2389E+02  5.1010E+02  5.6976E+02  8.6402E+01  0.0000E+00
      0.0  1.0024E+03  0.0000E+00  3.0753E+03 -3.4363E+03  9.2248E+02  5.5891E+03  0.0000E+00  0.0000E+00  0.0000E+00
      0.2  3.9706E+03  0.0000E+00  0.0000E+00  0.0000E+00  9.0000E+01  1.0000E+02  1.0000E+02  0.0000E+00 -4.4675E-01

  rolling  1.1049E+03  3.0950E+02 -3.1561E+02 -4.8334E+02 -9.6162E+02  4.5072E+02  5.9254E+02  8.6089E+01  0.0000E+00
 averages  1.1491E+03  0.0000E+00  2.7082E+03 -3.7568E+03  9.6029E+02  5.5047E+03  0.0000E+00  0.0000E+00  0.0000E+00
           3.9706E+03  0.0000E+00  0.0000E+00  0.0000E+00  9.0000E+01  1.0000E+02  1.0000E+02  0.0000E+00  1.8264E-01
 ------------------------------------------------------------------------------------------------------------------------
       28  1.1043E+03  3.1460E+02 -3.3955E+02 -5.0649E+02 -9.1993E+02  4.5485E+02  5.4481E+02  8.7215E+01  0.0000E+00
      0.0  5.8619E+02  0.0000E+00  4.4422E+03 -3.4504E+03  9.1860E+02  6.9739E+03  0.0000E+00  0.0000E+00  0.0000E+00
      0.3  3.9706E+03  0.0000E+00  0.0000E+00  0.0000E+00  9.0000E+01  1.0000E+02  1.0000E+02  0.0000E+00 -2.1386E+00

  rolling  1.1048E+03  3.0968E+02 -3.1647E+02 -4.8417E+02 -9.6013E+02  4.5087E+02  5.9083E+02  8.6129E+01  0.0000E+00
 averages  1.1290E+03  0.0000E+00  2.7701E+03 -3.7458E+03  9.5880E+02  5.5571E+03  0.0000E+00  0.0000E+00  0.0000E+00
           3.9706E+03  0.0000E+00  0.0000E+00  0.0000E+00  9.0000E+01  1.0000E+02  1.0000E+02  0.0000E+00  9.9740E-02
 ------------------------------------------------------------------------------------------------------------------------
       29  1.1006E+03  3.2775E+02 -4.0368E+02 -5.0643E+02 -9.2468E+02  4.1156E+02  5.2747E+02  8.8390E+01  0.0000E+00
      0.0  1.6133E+02  0.0000E+00  5.8262E+03 -3.4545E+03  9.2345E+02  8.3572E+03  0.0000E+00  0.0000E+00  0.0000E+00
      0.3  3.9706E+03  0.0000E+00  0.0000E+00  0.0000E+00  9.0000E+01  1.0000E+02  1.0000E+02  0.0000E+00 -3.8766E+00

  rolling  1.1047E+03  3.1030E+02 -3.1947E+02 -4.8494E+02 -9.5890E+02  4.4951E+02  5.8865E+02  8.6207E+01  0.0000E+00
 averages  1.0956E+03  0.0000E+00  2.8755E+03 -3.7358E+03  9.5758E+02  5.6537E+03  0.0000E+00  0.0000E+00  0.0000E+00
           3.9706E+03  0.0000E+00  0.0000E+00  0.0000E+00  9.0000E+01  1.0000E+02  1.0000E+02  0.0000E+00 -3.7376E-02
 ------------------------------------------------------------------------------------------------------------------------
       30  1.1029E+03  3.2801E+02 -4.0249E+02 -5.0664E+02 -9.3553E+02  4.3035E+02  5.1934E+02  8.9992E+01  0.0000E+00
      0.0 -1.3656E+02  0.0000E+00  6.7294E+03 -3.4486E+03  9.3419E+02  9.2438E+03  0.0000E+00  0.0000E+00  0.0000E+00
      0.3  3.9706E+03  0.0000E+00  0.0000E+00  0.0000E+00  9.0000E+01  1.0000E+02  1.0000E+02  0.0000E+00 -5.1159E+00

  rolling  1.1046E+03  3.1089E+02 -3.2224E+02 -4.8566E+02 -9.5813E+02  4.4887E+02  5.8634E+02  8.6333E+01  0.0000E+00
 averages  1.0546E+03  0.0000E+00  3.0040E+03 -3.7262E+03  9.5680E+02  5.7734E+03  0.0000E+00  0.0000E+00  0.0000E+00
           3.9706E+03  0.0000E+00  0.0000E+00  0.0000E+00  9.0000E+01  1.0000E+02  1.0000E+02  0.0000E+00 -2.0666E-01
 ------------------------------------------------------------------------------------------------------------------------
       31  1.1056E+03  3.2100E+02 -3.6768E+02 -5.0740E+02 -9.4564E+02  4.7320E+02  5.2022E+02  9.1951E+01  0.0000E+00
      0.0 -1.0767E+02  0.0000E+00  6.5862E+03 -3.4303E+03  9.4430E+02  9.0723E+03  0.0000E+00  0.0000E+00  0.0000E+00
      0.3  3.9706E+03  0.0000E+00  0.0000E+00  0.0000E+00  9.0000E+01  1.0000E+02  1.0000E+02  0.0000E+00 -5.0076E+00

  rolling  1.1047E+03  3.1122E+02 -3.2371E+02 -4.8636E+02 -9.5772E+02  4.4966E+02  5.8421E+02  8.6514E+01  0.0000E+00
 averages  1.0171E+03  0.0000E+00  3.1195E+03 -3.7166E+03  9.5640E+02  5.8798E+03  0.0000E+00  0.0000E+00  0.0000E+00
           3.9706E+03  0.0000E+00  0.0000E+00  0.0000E+00  9.0000E+01  1.0000E+02  1.0000E+02  0.0000E+00 -3.6153E-01
 ------------------------------------------------------------------------------------------------------------------------
       32  1.1054E+03  3.1452E+02 -3.3815E+02 -5.0895E+02 -9.4833E+02  4.9695E+02  5.2810E+02  9.4083E+01  0.0000E+00
      0.0  3.4927E+02  0.0000E+00  5.1553E+03 -3.3972E+03  9.4708E+02  7.6054E+03  0.0000E+00  0.0000E+00  0.0000E+00
      0.3  3.9706E+03  0.0000E+00  0.0000E+00  0.0000E+00  9.0000E+01  1.0000E+02  1.0000E+02  0.0000E+00 -3.1207E+00

  rolling  1.1047E+03  3.1132E+02 -3.2416E+02 -4.8707E+02 -9.5743E+02  4.5114E+02  5.8245E+02  8.6751E+01  0.0000E+00
 averages  9.9621E+02  0.0000E+00  3.1831E+03 -3.7067E+03  9.5611E+02  5.9337E+03  0.0000E+00  0.0000E+00  0.0000E+00
           3.9706E+03  0.0000E+00  0.0000E+00  0.0000E+00  9.0000E+01  1.0000E+02  1.0000E+02  0.0000E+00 -4.4775E-01
 ------------------------------------------------------------------------------------------------------------------------
 ------------------------------------------------------------------------------------------------------------------------

     step     eng_tot    temp_tot     eng_cfg     eng_vdw     eng_cou     eng_bnd     eng_ang     eng_dih     eng_tet
 time(ps)      eng_pv    temp_rot     vir_cfg     vir_vdw     vir_cou     vir_bnd     vir_ang     vir_con     vir_tet
 cpu  (s)      volume    temp_shl     eng_shl     vir_shl       alpha        beta       gamma     vir_pmf       press

 ------------------------------------------------------------------------------------------------------------------------
       33  1.1055E+03  3.0919E+02 -3.1353E+02 -5.1142E+02 -9.4139E+02  5.0365E+02  5.3950E+02  9.6146E+01  0.0000E+00
      0.0  1.1386E+03  0.0000E+00  2.7389E+03 -3.3505E+03  9.4013E+02  5.1493E+03  0.0000E+00  0.0000E+00  0.0000E+00
      0.3  3.9706E+03  0.0000E+00  0.0000E+00  0.0000E+00  9.0000E+01  1.0000E+02  1.0000E+02  0.0000E+00  1.3645E-01

  rolling  1.1047E+03  3.1126E+02 -3.2384E+02 -4.8781E+02 -9.5694E+02  4.5273E+02  5.8115E+02  8.7036E+01  0.0000E+00
 averages  1.0005E+03  0.0000E+00  3.1697E+03 -3.6959E+03  9.5563E+02  5.9099E+03  0.0000E+00  0.0000E+00  0.0000E+00
           3.9706E+03  0.0000E+00  0.0000E+00  0.0000E+00  9.0000E+01  1.0000E+02  1.0000E+02  0.0000E+00 -4.3005E-01
 ------------------------------------------------------------------------------------------------------------------------
       34  1.1074E+03  3.0597E+02 -2.9693E+02 -5.1407E+02 -9.2745E+02  4.9638E+02  5.5030E+02  9.7917E+01  0.0000E+00
      0.0  2.0328E+03  0.0000E+00  3.2211E+01 -3.3023E+03  9.2605E+02  2.4085E+03  0.0000E+00  0.0000E+00  0.0000E+00
      0.3  3.9706E+03  0.0000E+00  0.0000E+00  0.0000E+00  9.0000E+01  1.0000E+02  1.0000E+02  0.0000E+00  3.8197E+00

  rolling  1.1048E+03  3.1110E+02 -3.2305E+02 -4.8858E+02 -9.5608E+02  4.5401E+02  5.8024E+02  8.7356E+01  0.0000E+00
 averages  1.0309E+03  0.0000E+00  3.0774E+03 -3.6843E+03  9.5476E+02  5.8070E+03  0.0000E+00  0.0000E+00  0.0000E+00
           3.9706E+03  0.0000E+00  0.0000E+00  0.0000E+00  9.0000E+01  1.0000E+02  1.0000E+02  0.0000E+00 -3.0506E-01
 ------------------------------------------------------------------------------------------------------------------------
       35  1.1065E+03  3.0891E+02 -3.1126E+02 -5.1621E+02 -9.1174E+02  4.6058E+02  5.5686E+02  9.9253E+01  0.0000E+00
      0.0  2.7647E+03  0.0000E+00 -2.1390E+03 -3.2653E+03  9.1040E+02  2.1594E+02  0.0000E+00  0.0000E+00  0.0000E+00
      0.3  3.9706E+03  0.0000E+00  0.0000E+00  0.0000E+00  9.0000E+01  1.0000E+02  1.0000E+02  0.0000E+00  6.8439E+00

  rolling  1.1048E+03  3.1104E+02 -3.2271E+02 -4.8937E+02 -9.5481E+02  4.5420E+02  5.7957E+02  8.7696E+01  0.0000E+00
 averages  1.0804E+03  0.0000E+00  2.9284E+03 -3.6723E+03  9.5349E+02  5.6472E+03  0.0000E+00  0.0000E+00  0.0000E+00
           3.9706E+03  0.0000E+00  0.0000E+00  0.0000E+00  9.0000E+01  1.0000E+02  1.0000E+02  0.0000E+00 -1.0080E-01
 ------------------------------------------------------------------------------------------------------------------------
       36  1.1024E+03  3.1477E+02 -3.4228E+02 -5.1740E+02 -9.0018E+02  4.1796E+02  5.5721E+02  1.0012E+02  0.0000E+00
      0.0  3.0755E+03  0.0000E+00 -3.0300E+03 -3.2461E+03  8.9883E+02 -6.8278E+02  0.0000E+00  0.0000E+00  0.0000E+00
      0.3  3.9706E+03  0.0000E+00  0.0000E+00  0.0000E+00  9.0000E+01  1.0000E+02  1.0000E+02  0.0000E+00  8.1440E+00

  rolling  1.1048E+03  3.1114E+02 -3.2325E+02 -4.9015E+02 -9.5329E+02  4.5319E+02  5.7895E+02  8.8041E+01  0.0000E+00
 averages  1.1358E+03  0.0000E+00  2.7629E+03 -3.6605E+03  9.5197E+02  5.4714E+03  0.0000E+00  0.0000E+00  0.0000E+00
           3.9706E+03  0.0000E+00  0.0000E+00  0.0000E+00  9.0000E+01  1.0000E+02  1.0000E+02  0.0000E+00  1.2822E-01
 ------------------------------------------------------------------------------------------------------------------------
       37  1.1017E+03  3.1251E+02 -3.3255E+02 -5.1788E+02 -8.9772E+02  4.3037E+02  5.5208E+02  1.0059E+02  0.0000E+00
      0.0  2.8071E+03  0.0000E+00 -2.2477E+03 -3.2399E+03  8.9635E+02  9.5817E+01  0.0000E+00  0.0000E+00  0.0000E+00
      0.3  3.9706E+03  0.0000E+00  0.0000E+00  0.0000E+00  9.0000E+01  1.0000E+02  1.0000E+02  0.0000E+00  7.0390E+00

  rolling  1.1047E+03  3.1118E+02 -3.2350E+02 -4.9090E+02 -9.5179E+02  4.5258E+02  5.7823E+02  8.8380E+01  0.0000E+00
 averages  1.1810E+03  0.0000E+00  2.6274E+03 -3.6491E+03  9.5047E+02  5.3261E+03  0.0000E+00  0.0000E+00  0.0000E+00
           3.9706E+03  0.0000E+00  0.0000E+00  0.0000E+00  9.0000E+01  1.0000E+02  1.0000E+02  0.0000E+00  3.1500E-01
 ------------------------------------------------------------------------------------------------------------------------
       38  1.1072E+03  3.0088E+02 -2.7366E+02 -5.1873E+02 -9.0590E+02  5.0521E+02  5.4499E+02  1.0076E+02  0.0000E+00
      0.0  2.0485E+03  0.0000E+00 -6.2001E+01 -3.2318E+03  9.0447E+02  2.2653E+03  0.0000E+00  0.0000E+00  0.0000E+00
      0.3  3.9706E+03  0.0000E+00  0.0000E+00  0.0000E+00  9.0000E+01  1.0000E+02  1.0000E+02  0.0000E+00  3.8850E+00

  rolling  1.1048E+03  3.1091E+02 -3.2219E+02 -4.9163E+02 -9.5058E+02  4.5396E+02  5.7735E+02  8.8706E+01  0.0000E+00
 averages  1.2038E+03  0.0000E+00  2.5567E+03 -3.6381E+03  9.4926E+02  5.2455E+03  0.0000E+00  0.0000E+00  0.0000E+00
           3.9706E+03  0.0000E+00  0.0000E+00  0.0000E+00  9.0000E+01  1.0000E+02  1.0000E+02  0.0000E+00  4.0895E-01
 ------------------------------------------------------------------------------------------------------------------------
       39  1.1111E+03  2.9532E+02 -2.4433E+02 -5.2094E+02 -9.2071E+02  5.5574E+02  5.4083E+02  1.0075E+02  0.0000E+00
      0.0  1.1471E+03  0.0000E+00  2.6027E+03 -3.2069E+03  9.1931E+02  4.8903E+03  0.0000E+00  0.0000E+00  0.0000E+00
      0.3  3.9706E+03  0.0000E+00  0.0000E+00  0.0000E+00  9.0000E+01  1.0000E+02  1.0000E+02  0.0000E+00  1.4880E-01

  rolling  1.1049E+03  3.1051E+02 -3.2020E+02 -4.9238E+02 -9.4982E+02  4.5657E+02  5.7642E+02  8.9015E+01  0.0000E+00
 averages  1.2024E+03  0.0000E+00  2.5578E+03 -3.6271E+03  9.4849E+02  5.2364E+03  0.0000E+00  0.0000E+00  0.0000E+00
           3.9706E+03  0.0000E+00  0.0000E+00  0.0000E+00  9.0000E+01  1.0000E+02  1.0000E+02  0.0000E+00  4.0228E-01
 ------------------------------------------------------------------------------------------------------------------------
       40  1.1062E+03  3.0616E+02 -2.9891E+02 -5.2459E+02 -9.3396E+02  5.1548E+02  5.4352E+02  1.0064E+02  0.0000E+00
      0.0  4.8623E+02  0.0000E+00  4.6704E+03 -3.1610E+03  9.3255E+02  6.8988E+03  0.0000E+00  0.0000E+00  0.0000E+00
      0.4  3.9706E+03  0.0000E+00  0.0000E+00  0.0000E+00  9.0000E+01  1.0000E+02  1.0000E+02  0.0000E+00 -2.5591E+00

  rolling  1.1050E+03  3.1040E+02 -3.1966E+02 -4.9319E+02 -9.4942E+02  4.5804E+02  5.7559E+02  8.9305E+01  0.0000E+00
 averages  1.1845E+03  0.0000E+00  2.6107E+03 -3.6154E+03  9.4809E+02  5.2780E+03  0.0000E+00  0.0000E+00  0.0000E+00
           3.9706E+03  0.0000E+00  0.0000E+00  0.0000E+00  9.0000E+01  1.0000E+02  1.0000E+02  0.0000E+00  3.2824E-01
 ------------------------------------------------------------------------------------------------------------------------
 ------------------------------------------------------------------------------------------------------------------------

     step     eng_tot    temp_tot     eng_cfg     eng_vdw     eng_cou     eng_bnd     eng_ang     eng_dih     eng_tet
 time(ps)      eng_pv    temp_rot     vir_cfg     vir_vdw     vir_cou     vir_bnd     vir_ang     vir_con     vir_tet
 cpu  (s)      volume    temp_shl     eng_shl     vir_shl       alpha        beta       gamma     vir_pmf       press

 ------------------------------------------------------------------------------------------------------------------------
       41  1.0986E+03  3.1946E+02 -3.6757E+02 -5.2919E+02 -9.3851E+02  4.4539E+02  5.5426E+02  1.0048E+02  0.0000E+00
      0.0  2.4602E+02  0.0000E+00  5.4903E+03 -3.1003E+03  9.3713E+02  7.6535E+03  0.0000E+00  0.0000E+00  0.0000E+00
      0.4  3.9706E+03  0.0000E+00  0.0000E+00  0.0000E+00  9.0000E+01  1.0000E+02  1.0000E+02  0.0000E+00 -3.5192E+00

  rolling  1.1048E+03  3.1062E+02 -3.2083E+02 -4.9406E+02 -9.4915E+02  4.5773E+02  5.7507E+02  8.9578E+01  0.0000E+00
 averages  1.1616E+03  0.0000E+00  2.6809E+03 -3.6029E+03  9.4782E+02  5.3359E+03  0.0000E+00  0.0000E+00  0.0000E+00
           3.9706E+03  0.0000E+00  0.0000E+00  0.0000E+00  9.0000E+01  1.0000E+02  1.0000E+02  0.0000E+00  2.3440E-01
 ------------------------------------------------------------------------------------------------------------------------
       42  1.0997E+03  3.1435E+02 -3.4309E+02 -5.3367E+02 -9.3252E+02  4.5152E+02  5.7127E+02  1.0030E+02  0.0000E+00
      0.0  4.0534E+02  0.0000E+00  4.9684E+03 -3.0383E+03  9.3118E+02  7.0755E+03  0.0000E+00  0.0000E+00  0.0000E+00
      0.4  3.9706E+03  0.0000E+00  0.0000E+00  0.0000E+00  9.0000E+01  1.0000E+02  1.0000E+02  0.0000E+00 -2.8657E+00

  rolling  1.1047E+03  3.1071E+02 -3.2136E+02 -4.9501E+02 -9.4876E+02  4.5759E+02  5.7498E+02  8.9833E+01  0.0000E+00
 averages  1.1436E+03  0.0000E+00  2.7354E+03 -3.5894E+03  9.4743E+02  5.3774E+03  0.0000E+00  0.0000E+00  0.0000E+00
           3.9706E+03  0.0000E+00  0.0000E+00  0.0000E+00  9.0000E+01  1.0000E+02  1.0000E+02  0.0000E+00  1.6059E-01
 ------------------------------------------------------------------------------------------------------------------------
       43  1.1084E+03  2.9431E+02 -2.4241E+02 -5.3737E+02 -9.1935E+02  5.2327E+02  5.9093E+02  1.0010E+02  0.0000E+00
      0.0  8.8813E+02  0.0000E+00  3.3623E+03 -2.9841E+03  9.1814E+02  5.4283E+03  0.0000E+00  0.0000E+00  0.0000E+00
      0.4  3.9706E+03  0.0000E+00  0.0000E+00  0.0000E+00  9.0000E+01  1.0000E+02  1.0000E+02  0.0000E+00 -9.0906E-01

  rolling  1.1048E+03  3.1033E+02 -3.1953E+02 -4.9599E+02 -9.4807E+02  4.5911E+02  5.7535E+02  9.0072E+01  0.0000E+00
 averages  1.1376E+03  0.0000E+00  2.7499E+03 -3.5753E+03  9.4675E+02  5.3785E+03  0.0000E+00  0.0000E+00  0.0000E+00
           3.9706E+03  0.0000E+00  0.0000E+00  0.0000E+00  9.0000E+01  1.0000E+02  1.0000E+02  0.0000E+00  1.3572E-01
 ------------------------------------------------------------------------------------------------------------------------
       44  1.1123E+03  2.8421E+02 -1.9212E+02 -5.4018E+02 -9.0493E+02  5.4407E+02  6.0904E+02  9.9881E+01  0.0000E+00
      0.0  1.5873E+03  0.0000E+00  1.1838E+03 -2.9400E+03  9.0378E+02  3.2199E+03  0.0000E+00  0.0000E+00  0.0000E+00
      0.4  3.9706E+03  0.0000E+00  0.0000E+00  0.0000E+00  9.0000E+01  1.0000E+02  1.0000E+02  0.0000E+00  1.9606E+00

  rolling  1.1049E+03  3.0974E+02 -3.1663E+02 -4.9700E+02 -9.4709E+02  4.6104E+02  5.7612E+02  9.0295E+01  0.0000E+00
 averages  1.1479E+03  0.0000E+00  2.7143E+03 -3.5609E+03  9.4577E+02  5.3295E+03  0.0000E+00  0.0000E+00  0.0000E+00
           3.9706E+03  0.0000E+00  0.0000E+00  0.0000E+00  9.0000E+01  1.0000E+02  1.0000E+02  0.0000E+00  1.7719E-01
 ------------------------------------------------------------------------------------------------------------------------
       45  1.1061E+03  2.9522E+02 -2.4885E+02 -5.4208E+02 -8.9556E+02  4.6758E+02  6.2158E+02  9.9631E+01  0.0000E+00
      0.0  2.2597E+03  0.0000E+00 -7.5104E+02 -2.9082E+03  8.9438E+02  1.2628E+03  0.0000E+00  0.0000E+00  0.0000E+00
      0.4  3.9706E+03  0.0000E+00  0.0000E+00  0.0000E+00  9.0000E+01  1.0000E+02  1.0000E+02  0.0000E+00  4.7616E+00

  rolling  1.1050E+03  3.0941E+02 -3.1512E+02 -4.9800E+02 -9.4595E+02  4.6119E+02  5.7713E+02  9.0502E+01  0.0000E+00
 averages  1.1726E+03  0.0000E+00  2.6373E+03 -3.5464E+03  9.4463E+02  5.2391E+03  0.0000E+00  0.0000E+00  0.0000E+00
           3.9706E+03  0.0000E+00  0.0000E+00  0.0000E+00  9.0000E+01  1.0000E+02  1.0000E+02  0.0000E+00  2.7907E-01
 ------------------------------------------------------------------------------------------------------------------------
       46  1.0995E+03  3.0997E+02 -3.2315E+02 -5.4268E+02 -8.9618E+02  3.9148E+02  6.2487E+02  9.9357E+01  0.0000E+00
      0.0  2.5576E+03  0.0000E+00 -1.5290E+03 -2.8961E+03  8.9503E+02  4.7209E+02  0.0000E+00  0.0000E+00  0.0000E+00
      0.4  3.9706E+03  0.0000E+00  0.0000E+00  0.0000E+00  9.0000E+01  1.0000E+02  1.0000E+02  0.0000E+00  6.0182E+00

  rolling  1.1048E+03  3.0943E+02 -3.1530E+02 -4.9897E+02 -9.4487E+02  4.5967E+02  5.7817E+02  9.0695E+01  0.0000E+00
 averages  1.2027E+03  0.0000E+00  2.5468E+03 -3.5323E+03  9.4355E+02  5.1355E+03  0.0000E+00  0.0000E+00  0.0000E+00
           3.9706E+03  0.0000E+00  0.0000E+00  0.0000E+00  9.0000E+01  1.0000E+02  1.0000E+02  0.0000E+00  4.0383E-01
 ------------------------------------------------------------------------------------------------------------------------
       47  1.1020E+03  3.0951E+02 -3.1856E+02 -5.4183E+02 -9.0780E+02  4.1597E+02  6.1604E+02  9.9066E+01  0.0000E+00
      0.0  2.2760E+03  0.0000E+00 -6.8110E+02 -2.9078E+03  9.0669E+02  1.3200E+03  0.0000E+00  0.0000E+00  0.0000E+00
      0.4  3.9706E+03  0.0000E+00  0.0000E+00  0.0000E+00  9.0000E+01  1.0000E+02  1.0000E+02  0.0000E+00  4.8458E+00

  rolling  1.1048E+03  3.0943E+02 -3.1537E+02 -4.9988E+02 -9.4408E+02  4.5874E+02  5.7897E+02  9.0873E+01  0.0000E+00
 averages  1.2255E+03  0.0000E+00  2.4781E+03 -3.5190E+03  9.4276E+02  5.0543E+03  0.0000E+00  0.0000E+00  0.0000E+00
           3.9706E+03  0.0000E+00  0.0000E+00  0.0000E+00  9.0000E+01  1.0000E+02  1.0000E+02  0.0000E+00  4.9834E-01
 ------------------------------------------------------------------------------------------------------------------------
       48  1.1090E+03  3.0027E+02 -2.6911E+02 -5.3997E+02 -9.2566E+02  5.0335E+02  5.9439E+02  9.8775E+01  0.0000E+00
      0.0  1.5386E+03  0.0000E+00  1.4675E+03 -2.9364E+03  9.2442E+02  3.4794E+03  0.0000E+00  0.0000E+00  0.0000E+00
      0.4  3.9706E+03  0.0000E+00  0.0000E+00  0.0000E+00  9.0000E+01  1.0000E+02  1.0000E+02  0.0000E+00  1.7730E+00

  rolling  1.1049E+03  3.0924E+02 -3.1440E+02 -5.0072E+02 -9.4369E+02  4.5967E+02  5.7929E+02  9.1038E+01  0.0000E+00
 averages  1.2320E+03  0.0000E+00  2.4570E+03 -3.5068E+03  9.4238E+02  5.0215E+03  0.0000E+00  0.0000E+00  0.0000E+00
           3.9706E+03  0.0000E+00  0.0000E+00  0.0000E+00  9.0000E+01  1.0000E+02  1.0000E+02  0.0000E+00  5.2490E-01
 ------------------------------------------------------------------------------------------------------------------------
 ------------------------------------------------------------------------------------------------------------------------

     step     eng_tot    temp_tot     eng_cfg     eng_vdw     eng_cou     eng_bnd     eng_ang     eng_dih     eng_tet
 time(ps)      eng_pv    temp_rot     vir_cfg     vir_vdw     vir_cou     vir_bnd     vir_ang     vir_con     vir_tet
 cpu  (s)      volume    temp_shl     eng_shl     vir_shl       alpha        beta       gamma     vir_pmf       press

 ------------------------------------------------------------------------------------------------------------------------
       49  1.1101E+03  3.0186E+02 -2.7534E+02 -5.3831E+02 -9.4114E+02  5.4269E+02  5.6289E+02  9.8521E+01  0.0000E+00
      0.0  6.8054E+02  0.0000E+00  4.0595E+03 -2.9640E+03  9.3990E+02  6.0836E+03  0.0000E+00  0.0000E+00  0.0000E+00
      0.4  3.9706E+03  0.0000E+00  0.0000E+00  0.0000E+00  9.0000E+01  1.0000E+02  1.0000E+02  0.0000E+00 -1.7729E+00

  rolling  1.1050E+03  3.0909E+02 -3.1361E+02 -5.0148E+02 -9.4364E+02  4.6137E+02  5.7896E+02  9.1190E+01  0.0000E+00
 averages  1.2208E+03  0.0000E+00  2.4897E+03 -3.4958E+03  9.4233E+02  5.0432E+03  0.0000E+00  0.0000E+00  0.0000E+00
           3.9706E+03  0.0000E+00  0.0000E+00  0.0000E+00  9.0000E+01  1.0000E+02  1.0000E+02  0.0000E+00  4.7800E-01
 ------------------------------------------------------------------------------------------------------------------------
       50  1.1045E+03  3.1766E+02 -3.5343E+02 -5.3819E+02 -9.4708E+02  5.0534E+02  5.2816E+02  9.8353E+01  0.0000E+00
      0.1 -1.6397E+01  0.0000E+00  6.2785E+03 -2.9717E+03  9.4591E+02  8.3042E+03  0.0000E+00  0.0000E+00  0.0000E+00
      0.4  3.9706E+03  0.0000E+00  0.0000E+00  0.0000E+00  9.0000E+01  1.0000E+02  1.0000E+02  0.0000E+00 -4.6264E+00

  rolling  1.1050E+03  3.0926E+02 -3.1440E+02 -5.0222E+02 -9.4371E+02  4.6225E+02  5.7794E+02  9.1333E+01  0.0000E+00
 averages  1.1960E+03  0.0000E+00  2.5655E+03 -3.4853E+03  9.4240E+02  5.1084E+03  0.0000E+00  0.0000E+00  0.0000E+00
           3.9706E+03  0.0000E+00  0.0000E+00  0.0000E+00  9.0000E+01  1.0000E+02  1.0000E+02  0.0000E+00  3.7591E-01
 ------------------------------------------------------------------------------------------------------------------------
       51  1.1008E+03  3.3219E+02 -4.2385E+02 -5.3968E+02 -9.4169E+02  4.6065E+02  4.9855E+02  9.8314E+01  0.0000E+00
      0.1 -4.3434E+02  0.0000E+00  7.6545E+03 -2.9557E+03  9.4055E+02  9.6697E+03  0.0000E+00  0.0000E+00  0.0000E+00
      0.4  3.9706E+03  0.0000E+00  0.0000E+00  0.0000E+00  9.0000E+01  1.0000E+02  1.0000E+02  0.0000E+00 -6.3361E+00

  rolling  1.1049E+03  3.0971E+02 -3.1655E+02 -5.0295E+02 -9.4367E+02  4.6222E+02  5.7639E+02  9.1470E+01  0.0000E+00
 averages  1.1641E+03  0.0000E+00  2.6653E+03 -3.4749E+03  9.4237E+02  5.1978E+03  0.0000E+00  0.0000E+00  0.0000E+00
           3.9706E+03  0.0000E+00  0.0000E+00  0.0000E+00  9.0000E+01  1.0000E+02  1.0000E+02  0.0000E+00  2.4431E-01
 ------------------------------------------------------------------------------------------------------------------------
       52  1.1027E+03  3.3427E+02 -4.3148E+02 -5.4178E+02 -9.2824E+02  4.5857E+02  4.8154E+02  9.8433E+01  0.0000E+00
      0.1 -5.4725E+02  0.0000E+00  8.0181E+03 -2.9272E+03  9.2702E+02  1.0018E+04  0.0000E+00  0.0000E+00  0.0000E+00
      0.5  3.9706E+03  0.0000E+00  0.0000E+00  0.0000E+00  9.0000E+01  1.0000E+02  1.0000E+02  0.0000E+00 -6.8099E+00

  rolling  1.1048E+03  3.1018E+02 -3.1876E+02 -5.0370E+02 -9.4337E+02  4.6215E+02  5.7456E+02  9.1604E+01  0.0000E+00
 averages  1.1312E+03  0.0000E+00  2.7682E+03 -3.4644E+03  9.4207E+02  5.2905E+03  0.0000E+00  0.0000E+00  0.0000E+00
           3.9706E+03  0.0000E+00  0.0000E+00  0.0000E+00  9.0000E+01  1.0000E+02  1.0000E+02  0.0000E+00  1.0865E-01
 ------------------------------------------------------------------------------------------------------------------------
       53  1.1054E+03  3.2837E+02 -4.0168E+02 -5.4383E+02 -9.1278E+02  4.7447E+02  4.8173E+02  9.8723E+01  0.0000E+00
      0.1 -3.6838E+02  0.0000E+00  7.4356E+03 -2.8931E+03  9.1161E+02  9.4172E+03  0.0000E+00  0.0000E+00  0.0000E+00
      0.5  3.9706E+03  0.0000E+00  0.0000E+00  0.0000E+00  9.0000E+01  1.0000E+02  1.0000E+02  0.0000E+00 -6.0830E+00

  rolling  1.1049E+03  3.1052E+02 -3.2032E+02 -5.0446E+02 -9.4280E+02  4.6238E+02  5.7281E+02  9.1739E+01  0.0000E+00
 averages  1.1029E+03  0.0000E+00  2.8563E+03 -3.4536E+03  9.4150E+02  5.3684E+03  0.0000E+00  0.0000E+00  0.0000E+00
           3.9706E+03  0.0000E+00  0.0000E+00  0.0000E+00  9.0000E+01  1.0000E+02  1.0000E+02  0.0000E+00 -8.1757E-03
 ------------------------------------------------------------------------------------------------------------------------
       54  1.1051E+03  3.2222E+02 -3.7378E+02 -5.4710E+02 -9.0181E+02  4.7582E+02  5.0011E+02  9.9202E+01  0.0000E+00
      0.1  9.6761E+00  0.0000E+00  6.2439E+03 -2.8395E+03  9.0055E+02  8.1828E+03  0.0000E+00  0.0000E+00  0.0000E+00
      0.5  3.9706E+03  0.0000E+00  0.0000E+00  0.0000E+00  9.0000E+01  1.0000E+02  1.0000E+02  0.0000E+00 -4.5212E+00

  rolling  1.1049E+03  3.1074E+02 -3.2131E+02 -5.0525E+02 -9.4204E+02  4.6263E+02  5.7147E+02  9.1877E+01  0.0000E+00
 averages  1.0826E+03  0.0000E+00  2.9190E+03 -3.4422E+03  9.4074E+02  5.4205E+03  0.0000E+00  0.0000E+00  0.0000E+00
           3.9706E+03  0.0000E+00  0.0000E+00  0.0000E+00  9.0000E+01  1.0000E+02  1.0000E+02  0.0000E+00 -9.1750E-02
 ------------------------------------------------------------------------------------------------------------------------
       55  1.1043E+03  3.1592E+02 -3.4563E+02 -5.5234E+02 -9.0029E+02  4.7296E+02  5.3415E+02  9.9891E+01  0.0000E+00
      0.1  4.2378E+02  0.0000E+00  4.9415E+03 -2.7585E+03  8.9899E+02  6.8010E+03  0.0000E+00  0.0000E+00  0.0000E+00
      0.5  3.9706E+03  0.0000E+00  0.0000E+00  0.0000E+00  9.0000E+01  1.0000E+02  1.0000E+02  0.0000E+00 -2.8089E+00

  rolling  1.1048E+03  3.1083E+02 -3.2176E+02 -5.0610E+02 -9.4128E+02  4.6282E+02  5.7079E+02  9.2022E+01  0.0000E+00
 averages  1.0706E+03  0.0000E+00  2.9558E+03 -3.4298E+03  9.3998E+02  5.4456E+03  0.0000E+00  0.0000E+00  0.0000E+00
           3.9706E+03  0.0000E+00  0.0000E+00  0.0000E+00  9.0000E+01  1.0000E+02  1.0000E+02  0.0000E+00 -1.4115E-01
 ------------------------------------------------------------------------------------------------------------------------
       56  1.1059E+03  3.0819E+02 -3.0860E+02 -5.5773E+02 -9.0887E+02  4.7880E+02  5.7839E+02  1.0080E+02  0.0000E+00
      0.1  7.4560E+02  0.0000E+00  3.9098E+03 -2.6741E+03  9.0760E+02  5.6763E+03  0.0000E+00  0.0000E+00  0.0000E+00
      0.5  3.9706E+03  0.0000E+00  0.0000E+00  0.0000E+00  9.0000E+01  1.0000E+02  1.0000E+02  0.0000E+00 -1.4870E+00

  rolling  1.1049E+03  3.1079E+02 -3.2152E+02 -5.0702E+02 -9.4070E+02  4.6310E+02  5.7092E+02  9.2179E+01  0.0000E+00
 averages  1.0648E+03  0.0000E+00  2.9728E+03 -3.4163E+03  9.3940E+02  5.4497E+03  0.0000E+00  0.0000E+00  0.0000E+00
           3.9706E+03  0.0000E+00  0.0000E+00  0.0000E+00  9.0000E+01  1.0000E+02  1.0000E+02  0.0000E+00 -1.6519E-01
 ------------------------------------------------------------------------------------------------------------------------
 ------------------------------------------------------------------------------------------------------------------------

     step     eng_tot    temp_tot     eng_cfg     eng_vdw     eng_cou     eng_bnd     eng_ang     eng_dih     eng_tet
 time(ps)      eng_pv    temp_rot     vir_cfg     vir_vdw     vir_cou     vir_bnd     vir_ang     vir_con     vir_tet
 cpu  (s)      volume    temp_shl     eng_shl     vir_shl       alpha        beta       gamma     vir_pmf       press

 ------------------------------------------------------------------------------------------------------------------------
       57  1.1065E+03  3.0245E+02 -2.8164E+02 -5.6151E+02 -9.2253E+02  4.7537E+02  6.2511E+02  1.0191E+02  0.0000E+00
      0.1  9.4128E+02  0.0000E+00  3.2719E+03 -2.6139E+03  9.2127E+02  4.9645E+03  0.0000E+00  0.0000E+00  0.0000E+00
      0.5  3.9706E+03  0.0000E+00  0.0000E+00  0.0000E+00  9.0000E+01  1.0000E+02  1.0000E+02  0.0000E+00 -6.8188E-01

  rolling  1.1049E+03  3.1064E+02 -3.2082E+02 -5.0798E+02 -9.4038E+02  4.6332E+02  5.7187E+02  9.2350E+01  0.0000E+00
 averages  1.0627E+03  0.0000E+00  2.9781E+03 -3.4022E+03  9.3908E+02  5.4412E+03  0.0000E+00  0.0000E+00  0.0000E+00
           3.9706E+03  0.0000E+00  0.0000E+00  0.0000E+00  9.0000E+01  1.0000E+02  1.0000E+02  0.0000E+00 -1.7425E-01
 ------------------------------------------------------------------------------------------------------------------------
       58  1.1044E+03  2.9977E+02 -2.7142E+02 -5.6300E+02 -9.3313E+02  4.5628E+02  6.6530E+02  1.0314E+02  0.0000E+00
      0.1  1.0219E+03  0.0000E+00  2.9993E+03 -2.5872E+03  9.3190E+02  4.6546E+03  0.0000E+00  0.0000E+00  0.0000E+00
      0.5  3.9706E+03  0.0000E+00  0.0000E+00  0.0000E+00  9.0000E+01  1.0000E+02  1.0000E+02  0.0000E+00 -3.4065E-01

  rolling  1.1049E+03  3.1045E+02 -3.1997E+02 -5.0893E+02 -9.4026E+02  4.6320E+02  5.7348E+02  9.2536E+01  0.0000E+00
 averages  1.0620E+03  0.0000E+00  2.9784E+03 -3.3882E+03  9.3896E+02  5.4276E+03  0.0000E+00  0.0000E+00  0.0000E+00
           3.9706E+03  0.0000E+00  0.0000E+00  0.0000E+00  9.0000E+01  1.0000E+02  1.0000E+02  0.0000E+00 -1.7712E-01
 ------------------------------------------------------------------------------------------------------------------------
       59  1.1036E+03  2.9446E+02 -2.4790E+02 -5.6304E+02 -9.3466E+02  4.5483E+02  6.9065E+02  1.0433E+02  0.0000E+00
      0.1  9.8776E+02  0.0000E+00  3.0504E+03 -2.5851E+03  9.3344E+02  4.7021E+03  0.0000E+00  0.0000E+00  0.0000E+00
      0.5  3.9706E+03  0.0000E+00  0.0000E+00  0.0000E+00  9.0000E+01  1.0000E+02  1.0000E+02  0.0000E+00 -4.7804E-01

  rolling  1.1049E+03  3.1018E+02 -3.1875E+02 -5.0985E+02 -9.4016E+02  4.6305E+02  5.7547E+02  9.2736E+01  0.0000E+00
 averages  1.0607E+03  0.0000E+00  2.9797E+03 -3.3745E+03  9.3887E+02  5.4153E+03  0.0000E+00  0.0000E+00  0.0000E+00
           3.9706E+03  0.0000E+00  0.0000E+00  0.0000E+00  9.0000E+01  1.0000E+02  1.0000E+02  0.0000E+00 -1.8222E-01
 ------------------------------------------------------------------------------------------------------------------------
       60  1.1072E+03  2.8513E+02 -2.0140E+02 -5.6239E+02 -9.2635E+02  4.8612E+02  6.9590E+02  1.0530E+02  0.0000E+00
      0.1  8.6645E+02  0.0000E+00  3.3397E+03 -2.5965E+03  9.2510E+02  5.0111E+03  0.0000E+00  0.0000E+00  0.0000E+00
      0.5  3.9706E+03  0.0000E+00  0.0000E+00  0.0000E+00  9.0000E+01  1.0000E+02  1.0000E+02  0.0000E+00 -9.9387E-01

  rolling  1.1049E+03  3.0976E+02 -3.1679E+02 -5.1072E+02 -9.3993E+02  4.6344E+02  5.7748E+02  9.2945E+01  0.0000E+00
 averages  1.0575E+03  0.0000E+00  2.9857E+03 -3.3616E+03  9.3864E+02  5.4086E+03  0.0000E+00  0.0000E+00  0.0000E+00
           3.9706E+03  0.0000E+00  0.0000E+00  0.0000E+00  9.0000E+01  1.0000E+02  1.0000E+02  0.0000E+00 -1.9575E-01
 ------------------------------------------------------------------------------------------------------------------------
       61  1.1106E+03  2.8247E+02 -1.8586E+02 -5.6184E+02 -9.1192E+02  5.0140E+02  6.8057E+02  1.0594E+02  0.0000E+00
      0.1  7.4016E+02  0.0000E+00  3.7041E+03 -2.6082E+03  9.1070E+02  5.4017E+03  0.0000E+00  0.0000E+00  0.0000E+00
      0.5  3.9706E+03  0.0000E+00  0.0000E+00  0.0000E+00  9.0000E+01  1.0000E+02  1.0000E+02  0.0000E+00 -1.5289E+00

  rolling  1.1050E+03  3.0932E+02 -3.1465E+02 -5.1156E+02 -9.3947E+02  4.6406E+02  5.7917E+02  9.3158E+01  0.0000E+00
 averages  1.0523E+03  0.0000E+00  2.9974E+03 -3.3492E+03  9.3818E+02  5.4085E+03  0.0000E+00  0.0000E+00  0.0000E+00
           3.9706E+03  0.0000E+00  0.0000E+00  0.0000E+00  9.0000E+01  1.0000E+02  1.0000E+02  0.0000E+00 -2.1760E-01
 ------------------------------------------------------------------------------------------------------------------------
       62  1.1074E+03  2.9536E+02 -2.4818E+02 -5.6221E+02 -8.9731E+02  4.5612E+02  6.4902E+02  1.0619E+02  0.0000E+00
      0.1  6.6854E+02  0.0000E+00  4.0278E+03 -2.6078E+03  8.9615E+02  5.7394E+03  0.0000E+00  0.0000E+00  0.0000E+00
      0.6  3.9706E+03  0.0000E+00  0.0000E+00  0.0000E+00  9.0000E+01  1.0000E+02  1.0000E+02  0.0000E+00 -1.8114E+00

  rolling  1.1050E+03  3.0909E+02 -3.1357E+02 -5.1238E+02 -9.3879E+02  4.6393E+02  5.8029E+02  9.3369E+01  0.0000E+00
 averages  1.0461E+03  0.0000E+00  3.0141E+03 -3.3373E+03  9.3750E+02  5.4138E+03  0.0000E+00  0.0000E+00  0.0000E+00
           3.9706E+03  0.0000E+00  0.0000E+00  0.0000E+00  9.0000E+01  1.0000E+02  1.0000E+02  0.0000E+00 -2.4331E-01
 ------------------------------------------------------------------------------------------------------------------------
       63  1.1011E+03  3.1434E+02 -3.4162E+02 -5.6370E+02 -8.8848E+02  3.9561E+02  6.0886E+02  1.0609E+02  0.0000E+00
      0.1  6.1302E+02  0.0000E+00  4.3496E+03 -2.5917E+03  8.8720E+02  6.0541E+03  0.0000E+00  0.0000E+00  0.0000E+00
      0.6  3.9706E+03  0.0000E+00  0.0000E+00  0.0000E+00  9.0000E+01  1.0000E+02  1.0000E+02  0.0000E+00 -2.0144E+00

  rolling  1.1050E+03  3.0917E+02 -3.1402E+02 -5.1319E+02 -9.3799E+02  4.6285E+02  5.8075E+02  9.3571E+01  0.0000E+00
 averages  1.0392E+03  0.0000E+00  3.0353E+03 -3.3254E+03  9.3670E+02  5.4240E+03  0.0000E+00  0.0000E+00  0.0000E+00
           3.9706E+03  0.0000E+00  0.0000E+00  0.0000E+00  9.0000E+01  1.0000E+02  1.0000E+02  0.0000E+00 -2.7142E-01
 ------------------------------------------------------------------------------------------------------------------------
       64  1.1005E+03  3.2164E+02 -3.7570E+02 -5.6570E+02 -8.8937E+02  4.0507E+02  5.6860E+02  1.0569E+02  0.0000E+00
      0.1  5.1439E+02  0.0000E+00  4.7107E+03 -2.5677E+03  8.8807E+02  6.3903E+03  0.0000E+00  0.0000E+00  0.0000E+00
      0.6  3.9706E+03  0.0000E+00  0.0000E+00  0.0000E+00  9.0000E+01  1.0000E+02  1.0000E+02  0.0000E+00 -2.4191E+00

  rolling  1.1049E+03  3.0937E+02 -3.1498E+02 -5.1401E+02 -9.3723E+02  4.6194E+02  5.8056E+02  9.3760E+01  0.0000E+00
 averages  1.0310E+03  0.0000E+00  3.0614E+03 -3.3136E+03  9.3594E+02  5.4391E+03  0.0000E+00  0.0000E+00  0.0000E+00
           3.9706E+03  0.0000E+00  0.0000E+00  0.0000E+00  9.0000E+01  1.0000E+02  1.0000E+02  0.0000E+00 -3.0498E-01
 ------------------------------------------------------------------------------------------------------------------------
 ------------------------------------------------------------------------------------------------------------------------

     step     eng_tot    temp_tot     eng_cfg     eng_vdw     eng_cou     eng_bnd     eng_ang     eng_dih     eng_tet
 time(ps)      eng_pv    temp_rot     vir_cfg     vir_vdw     vir_cou     vir_bnd     vir_ang     vir_con     vir_tet
 cpu  (s)      volume    temp_shl     eng_shl     vir_shl       alpha        beta       gamma     vir_pmf       press

 ------------------------------------------------------------------------------------------------------------------------
       65  1.1064E+03  3.1594E+02 -3.4365E+02 -5.6706E+02 -8.9928E+02  4.8187E+02  5.3576E+02  1.0505E+02  0.0000E+00
      0.1  4.3832E+02  0.0000E+00  4.9042E+03 -2.5496E+03  8.9799E+02  6.5558E+03  0.0000E+00  0.0000E+00  0.0000E+00
      0.6  3.9706E+03  0.0000E+00  0.0000E+00  0.0000E+00  9.0000E+01  1.0000E+02  1.0000E+02  0.0000E+00 -2.7574E+00

  rolling  1.1049E+03  3.0947E+02 -3.1542E+02 -5.1483E+02 -9.3665E+02  4.6225E+02  5.7987E+02  9.3934E+01  0.0000E+00
 averages  1.0219E+03  0.0000E+00  3.0898E+03 -3.3018E+03  9.3536E+02  5.4563E+03  0.0000E+00  0.0000E+00  0.0000E+00
           3.9706E+03  0.0000E+00  0.0000E+00  0.0000E+00  9.0000E+01  1.0000E+02  1.0000E+02  0.0000E+00 -3.4271E-01
 ------------------------------------------------------------------------------------------------------------------------
       66  1.1095E+03  3.1362E+02 -3.2993E+02 -5.6649E+02 -9.1245E+02  5.2913E+02  5.1566E+02  1.0422E+02  0.0000E+00
      0.1  5.5699E+02  0.0000E+00  4.5363E+03 -2.5554E+03  9.1112E+02  6.1806E+03  0.0000E+00  0.0000E+00  0.0000E+00
      0.6  3.9706E+03  0.0000E+00  0.0000E+00  0.0000E+00  9.0000E+01  1.0000E+02  1.0000E+02  0.0000E+00 -2.2804E+00

  rolling  1.1050E+03  3.0953E+02 -3.1564E+02 -5.1561E+02 -9.3628E+02  4.6326E+02  5.7890E+02  9.4090E+01  0.0000E+00
 averages  1.0148E+03  0.0000E+00  3.1117E+03 -3.2905E+03  9.3499E+02  5.4673E+03  0.0000E+00  0.0000E+00  0.0000E+00
           3.9706E+03  0.0000E+00  0.0000E+00  0.0000E+00  9.0000E+01  1.0000E+02  1.0000E+02  0.0000E+00 -3.7207E-01
 ------------------------------------------------------------------------------------------------------------------------
       67  1.1051E+03  3.2339E+02 -3.7910E+02 -5.6255E+02 -9.2120E+02  4.9070E+02  5.1075E+02  1.0320E+02  0.0000E+00
      0.1  9.5740E+02  0.0000E+00  3.4117E+03 -2.6046E+03  9.1979E+02  5.0965E+03  0.0000E+00  0.0000E+00  0.0000E+00
      0.6  3.9706E+03  0.0000E+00  0.0000E+00  0.0000E+00  9.0000E+01  1.0000E+02  1.0000E+02  0.0000E+00 -6.0979E-01

  rolling  1.1050E+03  3.0974E+02 -3.1659E+02 -5.1631E+02 -9.3606E+02  4.6367E+02  5.7788E+02  9.4226E+01  0.0000E+00
 averages  1.0140E+03  0.0000E+00  3.1162E+03 -3.2803E+03  9.3476E+02  5.4617E+03  0.0000E+00  0.0000E+00  0.0000E+00
           3.9706E+03  0.0000E+00  0.0000E+00  0.0000E+00  9.0000E+01  1.0000E+02  1.0000E+02  0.0000E+00 -3.7562E-01
 ------------------------------------------------------------------------------------------------------------------------
       68  1.1000E+03  3.3289E+02 -4.2781E+02 -5.5494E+02 -9.2084E+02  4.2555E+02  5.2037E+02  1.0204E+02  0.0000E+00
      0.1  1.5228E+03  0.0000E+00  1.7875E+03 -2.7039E+03  9.1947E+02  3.5720E+03  0.0000E+00  0.0000E+00  0.0000E+00
      0.6  3.9706E+03  0.0000E+00  0.0000E+00  0.0000E+00  9.0000E+01  1.0000E+02  1.0000E+02  0.0000E+00  1.7447E+00

  rolling  1.1049E+03  3.1008E+02 -3.1823E+02 -5.1688E+02 -9.3583E+02  4.6311E+02  5.7703E+02  9.4341E+01  0.0000E+00
 averages  1.0215E+03  0.0000E+00  3.0966E+03 -3.2718E+03  9.3454E+02  5.4339E+03  0.0000E+00  0.0000E+00  0.0000E+00
           3.9706E+03  0.0000E+00  0.0000E+00  0.0000E+00  9.0000E+01  1.0000E+02  1.0000E+02  0.0000E+00 -3.4443E-01
 ------------------------------------------------------------------------------------------------------------------------
       69  1.1019E+03  3.2774E+02 -4.0230E+02 -5.4465E+02 -9.1182E+02  4.1258E+02  5.4078E+02  1.0081E+02  0.0000E+00
      0.1  2.0394E+03  0.0000E+00  1.9578E+02 -2.8412E+03  9.1026E+02  2.1267E+03  0.0000E+00  0.0000E+00  0.0000E+00
      0.6  3.9706E+03  0.0000E+00  0.0000E+00  0.0000E+00  9.0000E+01  1.0000E+02  1.0000E+02  0.0000E+00  3.8696E+00

  rolling  1.1049E+03  3.1034E+02 -3.1944E+02 -5.1728E+02 -9.3549E+02  4.6238E+02  5.7651E+02  9.4434E+01  0.0000E+00
 averages  1.0362E+03  0.0000E+00  3.0546E+03 -3.2656E+03  9.3419E+02  5.3860E+03  0.0000E+00  0.0000E+00  0.0000E+00
           3.9706E+03  0.0000E+00  0.0000E+00  0.0000E+00  9.0000E+01  1.0000E+02  1.0000E+02  0.0000E+00 -2.8336E-01
 ------------------------------------------------------------------------------------------------------------------------
       70  1.1077E+03  3.1309E+02 -3.2927E+02 -5.3437E+02 -8.9851E+02  4.3810E+02  5.6592E+02  9.9601E+01  0.0000E+00
      0.1  2.3579E+03  0.0000E+00 -8.7657E+02 -2.9808E+03  8.9692E+02  1.2073E+03  0.0000E+00  0.0000E+00  0.0000E+00
      0.6  3.9706E+03  0.0000E+00  0.0000E+00  0.0000E+00  9.0000E+01  1.0000E+02  1.0000E+02  0.0000E+00  5.1600E+00

  rolling  1.1049E+03  3.1038E+02 -3.1959E+02 -5.1753E+02 -9.3496E+02  4.6203E+02  5.7636E+02  9.4508E+01  0.0000E+00
 averages  1.0551E+03  0.0000E+00  2.9984E+03 -3.2615E+03  9.3365E+02  5.3263E+03  0.0000E+00  0.0000E+00  0.0000E+00
           3.9706E+03  0.0000E+00  0.0000E+00  0.0000E+00  9.0000E+01  1.0000E+02  1.0000E+02  0.0000E+00 -2.0560E-01
 ------------------------------------------------------------------------------------------------------------------------
       71  1.1089E+03  3.0533E+02 -2.9243E+02 -5.2806E+02 -8.8664E+02  4.3472E+02  5.8904E+02  9.8505E+01  0.0000E+00
      0.1  2.4085E+03  0.0000E+00 -1.0960E+03 -3.0709E+03  8.8514E+02  1.0898E+03  0.0000E+00  0.0000E+00  0.0000E+00
      0.6  3.9706E+03  0.0000E+00  0.0000E+00  0.0000E+00  9.0000E+01  1.0000E+02  1.0000E+02  0.0000E+00  5.3638E+00

  rolling  1.1050E+03  3.1030E+02 -3.1920E+02 -5.1767E+02 -9.3428E+02  4.6165E+02  5.7653E+02  9.4564E+01  0.0000E+00
 averages  1.0742E+03  0.0000E+00  2.9408E+03 -3.2588E+03  9.3297E+02  5.2666E+03  0.0000E+00  0.0000E+00  0.0000E+00
           3.9706E+03  0.0000E+00  0.0000E+00  0.0000E+00  9.0000E+01  1.0000E+02  1.0000E+02  0.0000E+00 -1.2716E-01
 ------------------------------------------------------------------------------------------------------------------------
       72  1.1047E+03  3.0849E+02 -3.1111E+02 -5.2813E+02 -8.8147E+02  3.9620E+02  6.0472E+02  9.7566E+01  0.0000E+00
      0.1  2.1392E+03  0.0000E+00 -2.7156E+02 -3.0801E+03  8.8006E+02  1.9285E+03  0.0000E+00  0.0000E+00  0.0000E+00
      0.6  3.9706E+03  0.0000E+00  0.0000E+00  0.0000E+00  9.0000E+01  1.0000E+02  1.0000E+02  0.0000E+00  4.2695E+00

  rolling  1.1050E+03  3.1028E+02 -3.1909E+02 -5.1782E+02 -9.3354E+02  4.6074E+02  5.7693E+02  9.4606E+01  0.0000E+00
 averages  1.0890E+03  0.0000E+00  2.8962E+03 -3.2563E+03  9.3224E+02  5.2203E+03  0.0000E+00  0.0000E+00  0.0000E+00
           3.9706E+03  0.0000E+00  0.0000E+00  0.0000E+00  9.0000E+01  1.0000E+02  1.0000E+02  0.0000E+00 -6.6091E-02
 ------------------------------------------------------------------------------------------------------------------------
 ------------------------------------------------------------------------------------------------------------------------

     step     eng_tot    temp_tot     eng_cfg     eng_vdw     eng_cou     eng_bnd     eng_ang     eng_dih     eng_tet
 time(ps)      eng_pv    temp_rot     vir_cfg     vir_vdw     vir_cou     vir_bnd     vir_ang     vir_con     vir_tet
 cpu  (s)      volume    temp_shl     eng_shl     vir_shl       alpha        beta       gamma     vir_pmf       press

 ------------------------------------------------------------------------------------------------------------------------
       73  1.1027E+03  3.1188E+02 -3.2878E+02 -5.3273E+02 -8.8588E+02  3.8246E+02  6.1058E+02  9.6784E+01  0.0000E+00
      0.1  1.5518E+03  0.0000E+00  1.5155E+03 -3.0280E+03  8.8447E+02  3.6591E+03  0.0000E+00  0.0000E+00  0.0000E+00
      0.6  3.9706E+03  0.0000E+00  0.0000E+00  0.0000E+00  9.0000E+01  1.0000E+02  1.0000E+02  0.0000E+00  1.8537E+00

  rolling  1.1049E+03  3.1030E+02 -3.1922E+02 -5.1802E+02 -9.3289E+02  4.5967E+02  5.7739E+02  9.4636E+01  0.0000E+00
 averages  1.0953E+03  0.0000E+00  2.8773E+03 -3.2532E+03  9.3158E+02  5.1989E+03  0.0000E+00  0.0000E+00  0.0000E+00
           3.9706E+03  0.0000E+00  0.0000E+00  0.0000E+00  9.0000E+01  1.0000E+02  1.0000E+02  0.0000E+00 -3.9793E-02
 ------------------------------------------------------------------------------------------------------------------------
       74  1.1051E+03  3.0927E+02 -3.1434E+02 -5.3895E+02 -8.9832E+02  4.1915E+02  6.0765E+02  9.6133E+01  0.0000E+00
      0.1  7.9707E+02  0.0000E+00  3.7628E+03 -2.9522E+03  8.9686E+02  5.8182E+03  0.0000E+00  0.0000E+00  0.0000E+00
      0.7  3.9706E+03  0.0000E+00  0.0000E+00  0.0000E+00  9.0000E+01  1.0000E+02  1.0000E+02  0.0000E+00 -1.2712E+00

  rolling  1.1049E+03  3.1029E+02 -3.1916E+02 -5.1831E+02 -9.3242E+02  4.5912E+02  5.7780E+02  9.4656E+01  0.0000E+00
 averages  1.0913E+03  0.0000E+00  2.8892E+03 -3.2491E+03  9.3111E+02  5.2073E+03  0.0000E+00  0.0000E+00  0.0000E+00
           3.9706E+03  0.0000E+00  0.0000E+00  0.0000E+00  9.0000E+01  1.0000E+02  1.0000E+02  0.0000E+00 -5.6434E-02
 ------------------------------------------------------------------------------------------------------------------------
       75  1.1071E+03  3.0679E+02 -3.0097E+02 -5.4409E+02 -9.1251E+02  4.6070E+02  5.9934E+02  9.5591E+01  0.0000E+00
      0.1  1.5993E+02  0.0000E+00  5.6575E+03 -2.8865E+03  9.1103E+02  7.6330E+03  0.0000E+00  0.0000E+00  0.0000E+00
      0.7  3.9706E+03  0.0000E+00  0.0000E+00  0.0000E+00  9.0000E+01  1.0000E+02  1.0000E+02  0.0000E+00 -3.9092E+00

  rolling  1.1050E+03  3.1024E+02 -3.1891E+02 -5.1865E+02 -9.3216E+02  4.5914E+02  5.7808E+02  9.4669E+01  0.0000E+00
 averages  1.0789E+03  0.0000E+00  2.9261E+03 -3.2443E+03  9.3085E+02  5.2396E+03  0.0000E+00  0.0000E+00  0.0000E+00
           3.9706E+03  0.0000E+00  0.0000E+00  0.0000E+00  9.0000E+01  1.0000E+02  1.0000E+02  0.0000E+00 -1.0781E-01
 ------------------------------------------------------------------------------------------------------------------------
       76  1.1054E+03  3.1000E+02 -3.1738E+02 -5.4687E+02 -9.2082E+02  4.6554E+02  5.8961E+02  9.5161E+01  0.0000E+00
      0.1 -1.1212E+02  0.0000E+00  6.4981E+03 -2.8463E+03  9.1928E+02  8.4251E+03  0.0000E+00  0.0000E+00  0.0000E+00
      0.7  3.9706E+03  0.0000E+00  0.0000E+00  0.0000E+00  9.0000E+01  1.0000E+02  1.0000E+02  0.0000E+00 -5.0252E+00

  rolling  1.1050E+03  3.1024E+02 -3.1889E+02 -5.1902E+02 -9.3201E+02  4.5923E+02  5.7823E+02  9.4675E+01  0.0000E+00
 averages  1.0632E+03  0.0000E+00  2.9731E+03 -3.2391E+03  9.3069E+02  5.2815E+03  0.0000E+00  0.0000E+00  0.0000E+00
[...]
      0.7  3.9706E+03  0.0000E+00  0.0000E+00  0.0000E+00  9.0000E+01  1.0000E+02  1.0000E+02  0.0000E+00 -2.9846E+00

  rolling  1.1050E+03  3.1005E+02 -3.1803E+02 -5.2184E+02 -9.2879E+02  4.5761E+02  5.8025E+02  9.4745E+01  0.0000E+00
 averages  1.0625E+03  0.0000E+00  2.9735E+03 -3.1960E+03  9.2747E+02  5.2421E+03  0.0000E+00  0.0000E+00  0.0000E+00
           3.9706E+03  0.0000E+00  0.0000E+00  0.0000E+00  9.0000E+01  1.0000E+02  1.0000E+02  0.0000E+00 -1.7541E-01
 ------------------------------------------------------------------------------------------------------------------------
       85  1.1037E+03  3.0510E+02 -2.9657E+02 -5.4853E+02 -9.3402E+02  4.5101E+02  6.3936E+02  9.5618E+01  0.0000E+00
      0.1 -1.4432E+02  0.0000E+00  6.5447E+03 -2.7714E+03  9.3274E+02  8.3834E+03  0.0000E+00  0.0000E+00  0.0000E+00
      0.7  3.9706E+03  0.0000E+00  0.0000E+00  0.0000E+00  9.0000E+01  1.0000E+02  1.0000E+02  0.0000E+00 -5.1512E+00

  rolling  1.1050E+03  3.1000E+02 -3.1778E+02 -5.2216E+02 -9.2885E+02  4.5754E+02  5.8094E+02  9.4755E+01  0.0000E+00
 averages  1.0483E+03  0.0000E+00  3.0156E+03 -3.1910E+03  9.2753E+02  5.2791E+03  0.0000E+00  0.0000E+00  0.0000E+00
           3.9706E+03  0.0000E+00  0.0000E+00  0.0000E+00  9.0000E+01  1.0000E+02  1.0000E+02  0.0000E+00 -2.3395E-01
 ------------------------------------------------------------------------------------------------------------------------
       86  1.1033E+03  3.0796E+02 -3.1010E+02 -5.4673E+02 -9.3675E+02  4.4548E+02  6.3282E+02  9.5078E+01  0.0000E+00
      0.1 -3.8543E+02  0.0000E+00  7.2929E+03 -2.7946E+03  9.3552E+02  9.1520E+03  0.0000E+00  0.0000E+00  0.0000E+00
      0.8  3.9706E+03  0.0000E+00  0.0000E+00  0.0000E+00  9.0000E+01  1.0000E+02  1.0000E+02  0.0000E+00 -6.1446E+00

  rolling  1.1050E+03  3.0997E+02 -3.1769E+02 -5.2244E+02 -9.2895E+02  4.5740E+02  5.8155E+02  9.4759E+01  0.0000E+00
 averages  1.0316E+03  0.0000E+00  3.0653E+03 -3.1864E+03  9.2762E+02  5.3241E+03  0.0000E+00  0.0000E+00  0.0000E+00
           3.9706E+03  0.0000E+00  0.0000E+00  0.0000E+00  9.0000E+01  1.0000E+02  1.0000E+02  0.0000E+00 -3.0268E-01
 ------------------------------------------------------------------------------------------------------------------------
       87  1.1064E+03  3.0633E+02 -2.9952E+02 -5.4447E+02 -9.2947E+02  4.6173E+02  6.1828E+02  9.4426E+01  0.0000E+00
      0.1 -2.8816E+02  0.0000E+00  6.9956E+03 -2.8235E+03  9.2826E+02  8.8909E+03  0.0000E+00  0.0000E+00  0.0000E+00
      0.8  3.9706E+03  0.0000E+00  0.0000E+00  0.0000E+00  9.0000E+01  1.0000E+02  1.0000E+02  0.0000E+00 -5.7560E+00

  rolling  1.1050E+03  3.0993E+02 -3.1748E+02 -5.2269E+02 -9.2895E+02  4.5745E+02  5.8197E+02  9.4755E+01  0.0000E+00
 averages  1.0165E+03  0.0000E+00  3.1105E+03 -3.1822E+03  9.2763E+02  5.3651E+03  0.0000E+00  0.0000E+00  0.0000E+00
           3.9706E+03  0.0000E+00  0.0000E+00  0.0000E+00  9.0000E+01  1.0000E+02  1.0000E+02  0.0000E+00 -3.6536E-01
 ------------------------------------------------------------------------------------------------------------------------
       88  1.1077E+03  3.0869E+02 -3.0907E+02 -5.4138E+02 -9.1678E+02  4.5635E+02  5.9898E+02  9.3765E+01  0.0000E+00
      0.1  1.1235E+02  0.0000E+00  5.8194E+03 -2.8626E+03  9.1553E+02  7.7665E+03  0.0000E+00  0.0000E+00  0.0000E+00
      0.8  3.9706E+03  0.0000E+00  0.0000E+00  0.0000E+00  9.0000E+01  1.0000E+02  1.0000E+02  0.0000E+00 -4.1081E+00

  rolling  1.1050E+03  3.0992E+02 -3.1738E+02 -5.2291E+02 -9.2881E+02  4.5743E+02  5.8216E+02  9.4744E+01  0.0000E+00
 averages  1.0062E+03  0.0000E+00  3.1413E+03 -3.1786E+03  9.2749E+02  5.3924E+03  0.0000E+00  0.0000E+00  0.0000E+00
           3.9706E+03  0.0000E+00  0.0000E+00  0.0000E+00  9.0000E+01  1.0000E+02  1.0000E+02  0.0000E+00 -4.0789E-01
 ------------------------------------------------------------------------------------------------------------------------
 ------------------------------------------------------------------------------------------------------------------------

     step     eng_tot    temp_tot     eng_cfg     eng_vdw     eng_cou     eng_bnd     eng_ang     eng_dih     eng_tet
 time(ps)      eng_pv    temp_rot     vir_cfg     vir_vdw     vir_cou     vir_bnd     vir_ang     vir_con     vir_tet
 cpu  (s)      volume    temp_shl     eng_shl     vir_shl       alpha        beta       gamma     vir_pmf       press

 ------------------------------------------------------------------------------------------------------------------------
       89  1.1044E+03  3.1818E+02 -3.5597E+02 -5.3692E+02 -9.0498E+02  4.1284E+02  5.7988E+02  9.3212E+01  0.0000E+00
      0.1  6.5101E+02  0.0000E+00  4.2808E+03 -2.9182E+03  9.0368E+02  6.2953E+03  0.0000E+00  0.0000E+00  0.0000E+00
      0.8  3.9706E+03  0.0000E+00  0.0000E+00  0.0000E+00  9.0000E+01  1.0000E+02  1.0000E+02  0.0000E+00 -1.8712E+00

  rolling  1.1050E+03  3.1001E+02 -3.1782E+02 -5.2306E+02 -9.2855E+02  4.5693E+02  5.8214E+02  9.4727E+01  0.0000E+00
 averages  1.0022E+03  0.0000E+00  3.1541E+03 -3.1757E+03  9.2723E+02  5.4025E+03  0.0000E+00  0.0000E+00  0.0000E+00
           3.9706E+03  0.0000E+00  0.0000E+00  0.0000E+00  9.0000E+01  1.0000E+02  1.0000E+02  0.0000E+00 -4.2433E-01
 ------------------------------------------------------------------------------------------------------------------------
       90  1.1013E+03  3.2545E+02 -3.9233E+02 -5.3157E+02 -9.0038E+02  3.8062E+02  5.6613E+02  9.2872E+01  0.0000E+00
      0.1  1.0691E+03  0.0000E+00  3.0840E+03 -2.9859E+03  8.9924E+02  5.1707E+03  0.0000E+00  0.0000E+00  0.0000E+00
      0.8  3.9706E+03  0.0000E+00  0.0000E+00  0.0000E+00  9.0000E+01  1.0000E+02  1.0000E+02  0.0000E+00 -1.3304E-01

  rolling  1.1050E+03  3.1018E+02 -3.1864E+02 -5.2316E+02 -9.2823E+02  4.5608E+02  5.8196E+02  9.4706E+01  0.0000E+00
 averages  1.0029E+03  0.0000E+00  3.1533E+03 -3.1736E+03  9.2692E+02  5.3999E+03  0.0000E+00  0.0000E+00  0.0000E+00
           3.9706E+03  0.0000E+00  0.0000E+00  0.0000E+00  9.0000E+01  1.0000E+02  1.0000E+02  0.0000E+00 -4.2110E-01
 ------------------------------------------------------------------------------------------------------------------------
       91  1.1033E+03  3.2198E+02 -3.7441E+02 -5.2692E+02 -9.0683E+02  4.0554E+02  5.6100E+02  9.2809E+01  0.0000E+00
      0.1  1.1772E+03  0.0000E+00  2.7340E+03 -3.0463E+03  9.0571E+02  4.8746E+03  0.0000E+00  0.0000E+00  0.0000E+00
      0.8  3.9706E+03  0.0000E+00  0.0000E+00  0.0000E+00  9.0000E+01  1.0000E+02  1.0000E+02  0.0000E+00  3.0473E-01

  rolling  1.1049E+03  3.1031E+02 -3.1926E+02 -5.2320E+02 -9.2800E+02  4.5553E+02  5.8173E+02  9.4685E+01  0.0000E+00
 averages  1.0049E+03  0.0000E+00  3.1487E+03 -3.1722E+03  9.2668E+02  5.3942E+03  0.0000E+00  0.0000E+00  0.0000E+00
           3.9706E+03  0.0000E+00  0.0000E+00  0.0000E+00  9.0000E+01  1.0000E+02  1.0000E+02  0.0000E+00 -4.1312E-01
 ------------------------------------------------------------------------------------------------------------------------
       92  1.1073E+03  3.1312E+02 -3.2980E+02 -5.2425E+02 -9.2277E+02  4.5993E+02  5.6429E+02  9.3004E+01  0.0000E+00
      0.1  9.8571E+02  0.0000E+00  3.2390E+03 -3.0832E+03  9.2171E+02  5.4004E+03  0.0000E+00  0.0000E+00  0.0000E+00
      0.8  3.9706E+03  0.0000E+00  0.0000E+00  0.0000E+00  9.0000E+01  1.0000E+02  1.0000E+02  0.0000E+00 -5.0186E-01

  rolling  1.1050E+03  3.1034E+02 -3.1937E+02 -5.2321E+02 -9.2794E+02  4.5558E+02  5.8154E+02  9.4667E+01  0.0000E+00
 averages  1.0046E+03  0.0000E+00  3.1497E+03 -3.1712E+03  9.2663E+02  5.3942E+03  0.0000E+00  0.0000E+00  0.0000E+00
           3.9706E+03  0.0000E+00  0.0000E+00  0.0000E+00  9.0000E+01  1.0000E+02  1.0000E+02  0.0000E+00 -4.1408E-01
 ------------------------------------------------------------------------------------------------------------------------
       93  1.1072E+03  3.0958E+02 -3.1368E+02 -5.2352E+02 -9.4096E+02  4.8461E+02  5.7284E+02  9.3349E+01  0.0000E+00
      0.1  6.5380E+02  0.0000E+00  4.2019E+03 -3.0974E+03  9.3983E+02  6.3595E+03  0.0000E+00  0.0000E+00  0.0000E+00
      0.8  3.9706E+03  0.0000E+00  0.0000E+00  0.0000E+00  9.0000E+01  1.0000E+02  1.0000E+02  0.0000E+00 -1.8713E+00

  rolling  1.1050E+03  3.1033E+02 -3.1931E+02 -5.2322E+02 -9.2808E+02  4.5589E+02  5.8144E+02  9.4653E+01  0.0000E+00
 averages  1.0009E+03  0.0000E+00  3.1610E+03 -3.1704E+03  9.2677E+02  5.4046E+03  0.0000E+00  0.0000E+00  0.0000E+00
           3.9706E+03  0.0000E+00  0.0000E+00  0.0000E+00  9.0000E+01  1.0000E+02  1.0000E+02  0.0000E+00 -4.2975E-01
 ------------------------------------------------------------------------------------------------------------------------
       94  1.1038E+03  3.1119E+02 -3.2445E+02 -5.2358E+02 -9.5278E+02  4.7586E+02  5.8237E+02  9.3677E+01  0.0000E+00
      0.1  3.3647E+02  0.0000E+00  5.1584E+03 -3.1017E+03  9.5157E+02  7.3085E+03  0.0000E+00  0.0000E+00  0.0000E+00
      0.8  3.9706E+03  0.0000E+00  0.0000E+00  0.0000E+00  9.0000E+01  1.0000E+02  1.0000E+02  0.0000E+00 -3.1670E+00

  rolling  1.1050E+03  3.1034E+02 -3.1936E+02 -5.2322E+02 -9.2834E+02  4.5610E+02  5.8145E+02  9.4642E+01  0.0000E+00
 averages  9.9381E+02  0.0000E+00  3.1822E+03 -3.1697E+03  9.2703E+02  5.4249E+03  0.0000E+00  0.0000E+00  0.0000E+00
           3.9706E+03  0.0000E+00  0.0000E+00  0.0000E+00  9.0000E+01  1.0000E+02  1.0000E+02  0.0000E+00 -4.5887E-01
 ------------------------------------------------------------------------------------------------------------------------
       95  1.1028E+03  3.0855E+02 -3.1329E+02 -5.2378E+02 -9.5325E+02  4.8058E+02  5.8935E+02  9.3820E+01  0.0000E+00
      0.1  1.1624E+02  0.0000E+00  5.7920E+03 -3.1051E+03  9.5207E+02  7.9451E+03  0.0000E+00  0.0000E+00  0.0000E+00
      0.8  3.9706E+03  0.0000E+00  0.0000E+00  0.0000E+00  9.0000E+01  1.0000E+02  1.0000E+02  0.0000E+00 -4.0721E+00

  rolling  1.1050E+03  3.1032E+02 -3.1930E+02 -5.2323E+02 -9.2861E+02  4.5636E+02  5.8154E+02  9.4634E+01  0.0000E+00
 averages  9.8457E+02  0.0000E+00  3.2097E+03 -3.1690E+03  9.2730E+02  5.4514E+03  0.0000E+00  0.0000E+00  0.0000E+00
           3.9706E+03  0.0000E+00  0.0000E+00  0.0000E+00  9.0000E+01  1.0000E+02  1.0000E+02  0.0000E+00 -4.9691E-01
 ------------------------------------------------------------------------------------------------------------------------
       96  1.1062E+03  2.9944E+02 -2.6815E+02 -5.2362E+02 -9.4282E+02  5.1254E+02  5.9209E+02  9.3648E+01  0.0000E+00
      0.1  4.5684E+01  0.0000E+00  5.9302E+03 -3.1125E+03  9.4164E+02  8.1010E+03  0.0000E+00  0.0000E+00  0.0000E+00
      0.8  3.9706E+03  0.0000E+00  0.0000E+00  0.0000E+00  9.0000E+01  1.0000E+02  1.0000E+02  0.0000E+00 -4.3771E+00

  rolling  1.1050E+03  3.1021E+02 -3.1877E+02 -5.2323E+02 -9.2875E+02  4.5694E+02  5.8165E+02  9.4623E+01  0.0000E+00
 averages  9.7479E+02  0.0000E+00  3.2380E+03 -3.1684E+03  9.2745E+02  5.4790E+03  0.0000E+00  0.0000E+00  0.0000E+00
           3.9706E+03  0.0000E+00  0.0000E+00  0.0000E+00  9.0000E+01  1.0000E+02  1.0000E+02  0.0000E+00 -5.3733E-01
 ------------------------------------------------------------------------------------------------------------------------
 ------------------------------------------------------------------------------------------------------------------------

     step     eng_tot    temp_tot     eng_cfg     eng_vdw     eng_cou     eng_bnd     eng_ang     eng_dih     eng_tet
 time(ps)      eng_pv    temp_rot     vir_cfg     vir_vdw     vir_cou     vir_bnd     vir_ang     vir_con     vir_tet
 cpu  (s)      volume    temp_shl     eng_shl     vir_shl       alpha        beta       gamma     vir_pmf       press

 ------------------------------------------------------------------------------------------------------------------------
       97  1.1087E+03  2.9354E+02 -2.3851E+02 -5.2329E+02 -9.2596E+02  5.2690E+02  5.9074E+02  9.3103E+01  0.0000E+00
      0.1  1.5862E+02  0.0000E+00  5.5447E+03 -3.1201E+03  9.2483E+02  7.7400E+03  0.0000E+00  0.0000E+00  0.0000E+00
      0.8  3.9706E+03  0.0000E+00  0.0000E+00  0.0000E+00  9.0000E+01  1.0000E+02  1.0000E+02  0.0000E+00 -3.9214E+00

  rolling  1.1050E+03  3.1004E+02 -3.1794E+02 -5.2323E+02 -9.2872E+02  4.5767E+02  5.8174E+02  9.4608E+01  0.0000E+00
 averages  9.6637E+02  0.0000E+00  3.2618E+03 -3.1679E+03  9.2742E+02  5.5023E+03  0.0000E+00  0.0000E+00  0.0000E+00
           3.9706E+03  0.0000E+00  0.0000E+00  0.0000E+00  9.0000E+01  1.0000E+02  1.0000E+02  0.0000E+00 -5.7221E-01
 ------------------------------------------------------------------------------------------------------------------------
       98  1.1067E+03  2.9825E+02 -2.6209E+02 -5.2330E+02 -9.0940E+02  4.9213E+02  5.8627E+02  9.2209E+01  0.0000E+00
      0.1  4.1408E+02  0.0000E+00  4.8156E+03 -3.1207E+03  9.0833E+02  7.0280E+03  0.0000E+00  0.0000E+00  0.0000E+00
      0.9  3.9706E+03  0.0000E+00  0.0000E+00  0.0000E+00  9.0000E+01  1.0000E+02  1.0000E+02  0.0000E+00 -2.8589E+00

  rolling  1.1050E+03  3.0992E+02 -3.1737E+02 -5.2323E+02 -9.2853E+02  4.5802E+02  5.8179E+02  9.4583E+01  0.0000E+00
 averages  9.6074E+02  0.0000E+00  3.2777E+03 -3.1674E+03  9.2722E+02  5.5179E+03  0.0000E+00  0.0000E+00  0.0000E+00
           3.9706E+03  0.0000E+00  0.0000E+00  0.0000E+00  9.0000E+01  1.0000E+02  1.0000E+02  0.0000E+00 -5.9555E-01
 ------------------------------------------------------------------------------------------------------------------------
       99  1.1034E+03  3.0820E+02 -3.1109E+02 -5.2407E+02 -9.0005E+02  4.4239E+02  5.7956E+02  9.1075E+01  0.0000E+00
      0.1  6.8547E+02  0.0000E+00  4.0830E+03 -3.1085E+03  8.9900E+02  6.2925E+03  0.0000E+00  0.0000E+00  0.0000E+00
      0.9  3.9706E+03  0.0000E+00  0.0000E+00  0.0000E+00  9.0000E+01  1.0000E+02  1.0000E+02  0.0000E+00 -1.7251E+00

  rolling  1.1050E+03  3.0990E+02 -3.1731E+02 -5.2324E+02 -9.2824E+02  4.5786E+02  5.8177E+02  9.4548E+01  0.0000E+00
 averages  9.5796E+02  0.0000E+00  3.2858E+03 -3.1668E+03  9.2694E+02  5.5257E+03  0.0000E+00  0.0000E+00  0.0000E+00
           3.9706E+03  0.0000E+00  0.0000E+00  0.0000E+00  9.0000E+01  1.0000E+02  1.0000E+02  0.0000E+00 -6.0696E-01
 ------------------------------------------------------------------------------------------------------------------------
      100  1.1033E+03  3.1376E+02 -3.3674E+02 -5.2559E+02 -9.0192E+02  4.2952E+02  5.7139E+02  8.9863E+01  0.0000E+00
      0.1  8.6099E+02  0.0000E+00  3.6069E+03 -3.0857E+03  9.0089E+02  5.7917E+03  0.0000E+00  0.0000E+00  0.0000E+00
      0.9  3.9706E+03  0.0000E+00  0.0000E+00  0.0000E+00  9.0000E+01  1.0000E+02  1.0000E+02  0.0000E+00 -1.0001E+00

  rolling  1.1050E+03  3.0994E+02 -3.1750E+02 -5.2326E+02 -9.2798E+02  4.5758E+02  5.8166E+02  9.4501E+01  0.0000E+00
 averages  9.5699E+02  0.0000E+00  3.2890E+03 -3.1660E+03  9.2668E+02  5.5284E+03  0.0000E+00  0.0000E+00  0.0000E+00
           3.9706E+03  0.0000E+00  0.0000E+00  0.0000E+00  9.0000E+01  1.0000E+02  1.0000E+02  0.0000E+00 -6.1089E-01
 ------------------------------------------------------------------------------------------------------------------------


 run terminating. elapsed cpu time =         0.868, job time = 100000000.000, close time =      1000.000



 run terminated after     100 steps. final averages calculated over     100 steps.


 ------------------------------------------------------------------------------------------------------------------------

     step     eng_tot    temp_tot     eng_cfg     eng_vdw     eng_cou     eng_bnd     eng_ang     eng_dih     eng_tet
 time(ps)      eng_pv    temp_rot     vir_cfg     vir_vdw     vir_cou     vir_bnd     vir_ang     vir_con     vir_tet
 cpu  (s)      volume    temp_shl     eng_shl     vir_shl       alpha        beta       gamma     vir_pmf       press

 ------------------------------------------------------------------------------------------------------------------------
      100  1.1050E+03  3.0994E+02 -3.1750E+02 -5.2326E+02 -9.2798E+02  4.5758E+02  5.8166E+02  9.4501E+01  0.0000E+00
    0.100  9.5699E+02  0.0000E+00  3.2890E+03 -3.1660E+03  9.2668E+02  5.5284E+03  0.0000E+00  0.0000E+00  0.0000E+00
     0.89  3.9706E+03  0.0000E+00  0.0000E+00  0.0000E+00  9.0000E+01  1.0000E+02  1.0000E+02  0.0000E+00 -6.1089E-01

  r.m.s.   3.7087E+00  1.2513E+01  6.0178E+01  2.9492E+01  2.8652E+01  4.7997E+01  4.6218E+01  6.4722E+00  0.0000E+00
 fluctn.   8.2367E+02  0.0000E+00  2.4925E+03  4.3321E+02  2.8646E+01  2.4559E+03  0.0000E+00  0.0000E+00  0.0000E+00
           1.0292E-12  0.0000E+00  0.0000E+00  0.0000E+00  2.0133E-14  1.2391E-14  3.7518E-14  0.0000E+00  3.4004E+00
 ------------------------------------------------------------------------------------------------------------------------


            Approximate 3D Diffusion  coefficients (10^-9 m^2 / s)

            atom        D 
            CT         0.0000E+00
            HC         0.0000E+00
            OH_a       0.0000E+00
            HO         0.0000E+00


                Average pressure tensor                                       r.m.s. fluctuations 

          -8.3524E-01 -5.3751E-01  2.5316E-01                          4.3523E+00  3.7942E+00  2.0619E+00
          -5.3751E-01  5.2117E-02 -9.9223E-01                          3.7942E+00  4.1699E+00  1.8026E+00
           2.5316E-01 -9.9223E-01 -1.0495E+00                          2.0619E+00  1.8026E+00  4.2965E+00

            trace/3.  -6.1089E-01


 sample of final configuration

      i       x(i)        y(i)        z(i)       vx(i)       vy(i)       vz(i)       fx(i)       fy(i)       fz(i)


      1  1.7070E+00  1.3499E+00  5.2463E+00 -2.7049E+00 -3.2798E+00 -2.6692E+00 -3.3987E+03  5.2014E+03 -4.2388E+03
     20 -4.6301E+00 -2.8443E+00  2.9080E+00  1.3734E+00  2.1100E+00 -8.3763E+00  1.7762E+04 -1.0061E+04 -2.2275E+03
     39 -5.7395E+00  6.7139E+00 -3.5086E+00  1.2864E+01  3.4428E+01 -2.5529E+01  4.2150E+03 -3.1757E+03 -6.9725E+03
     58 -1.0250E+00  4.1652E-01  3.8033E+00 -5.5622E+00 -2.9891E+01  2.4132E+01  7.9110E+03 -8.6868E+03  7.4921E+02
     77  3.4085E+00 -3.1789E+00 -6.3506E+00 -1.0706E+01  1.2577E+01  1.4535E+01 -9.5209E+02 -5.3256E+03  8.2169E+02
     96 -1.7858E+00 -9.8945E-01 -4.1447E+00 -5.5900E+00  1.8971E+00 -9.0394E+00 -5.5972E+03 -1.1085E+04  2.3181E+03
    115  9.9643E-01 -4.6940E+00 -1.0207E+00 -1.8251E+01 -5.3848E+00  6.5135E-01 -6.8829E+03  6.3860E+03  9.6000E+03
    134 -1.2111E+00 -5.8000E+00  6.4389E+00  1.1262E+01 -1.3759E+01  1.7542E+01  7.3911E+03 -7.0725E+03 -2.6141E+03
    153  6.0848E+00  7.3857E-01  6.2023E+00  4.5030E+00  2.6916E+01 -5.7263E+00 -1.1116E+03  4.4295E+03  1.7507E+03
    172 -2.3805E+00 -5.5020E+00 -4.3154E-01 -5.4271E+00  6.9070E+00 -6.5040E+00  1.1564E+04  1.2677E+04  1.3821E+04
    191 -2.9193E+00 -1.5018E-01 -8.2973E-01  7.4984E+00 -3.5443E+00 -4.0097E+00  2.4556E+04 -1.8420E+03  1.0678E+02
    210  3.2054E+00 -6.7713E-01 -1.5200E+00  5.6214E-01  4.1640E+00  6.2041E+00  2.2982E+03  1.6927E+02  1.1859E+04
    229  4.0946E+00  7.2582E+00 -2.1257E+00 -6.5909E+00  3.4435E+01 -2.9462E-01 -5.0350E+02 -2.4608E+03  5.2034E+03
    248  5.8988E+00 -2.2792E+00 -3.0356E+00  6.8592E+00  1.8466E+01  1.4521E+01  4.4046E+02 -1.6501E+03 -7.2233E+03
    267 -8.2388E+00  1.6659E+00  5.5335E+00 -4.6766E+00 -1.7377E+00 -2.5953E+00  1.7718E+04 -2.0918E+04  2.6742E+03
    286 -8.6429E+00  6.7210E+00  9.2384E-01  8.5948E-01  9.2768E+00 -1.2254E+01 -3.3897E+03  8.3636E+02 -2.3584E+03
    305 -5.9050E+00 -1.7112E+00 -4.1078E+00  5.1173E+00  3.0792E+01  2.4648E+00 -5.0472E+03  1.2838E+04  7.6509E+03
    324  3.8361E+00  2.0090E+00  1.4983E-01  2.1277E+01 -3.9547E+00  9.5291E+00 -3.9570E+03 -1.9803E+03  1.1304E+04
    343 -5.2897E+00  5.9802E+00  3.2390E+00  1.5889E+00  5.0382E+00  3.3755E+00  1.3503E+04 -7.5916E+03  6.6649E+03
    362 -1.3485E+00 -4.1895E+00 -5.4485E+00  3.9662E+00  9.5901E+00  1.8773E+00 -9.9159E+03  3.5221E+03 -1.1713E+04

 time elapsed since job start =           0.890 seconds

