DL_POLY CONTROL file 

# System State
temperature		300.0   # K
#zero
#ensemble   nvt hoover   0.1
#pressure		0.00101325
#ensemble   npt hoover   0.2  0.1

# Simulation Time
timestep		1.0E-3  # ps
steps			1000

# Long-range Interactions
cut			9.0
rvdw			9.0
delr			0.5

##### Change to 5.0E-8 for production runs
#ewald precision          5.0E-6
no elec
##########################################

# Constraint Tolerance
shake tolerance		1E-8

# Output
traj    start at: 0 ; save every: 1 ; save information: 2
print			1
stack			1000
stats			1000

# Job Control
job time		1E8
close time		1E3

finish
